
     Program BANDS v.7.1 starts on 27Jun2025 at 18:13:38 

     This program is part of the open-source Quantum ESPRESSO suite
     for quantum simulation of materials; please cite
         "P. Giannozzi et al., J. Phys.:Condens. Matter 21 395502 (2009);
         "P. Giannozzi et al., J. Phys.:Condens. Matter 29 465901 (2017);
         "P. Giannozzi et al., J. Chem. Phys. 152 154105 (2020);
          URL http://www.quantum-espresso.org", 
     in publications or presentations arising from this work. More details at
     http://www.quantum-espresso.org/quote

     Parallel version (MPI & OpenMP), running on      12 processor cores
     Number of MPI processes:                12
     Threads/MPI process:                     1

     MPI processes distributed on     1 nodes
     R & G space division:  proc/nbgrp/npool/nimage =      12
     464397 MiB available memory on the printing compute node when the environment starts


     Reading xml data from directory:

     ./graphene.save/
     file C.pbe-n-kjpaw_psl.1.0.0.UPF: wavefunction(s)  2S 2P renormalized

     IMPORTANT: XC functional enforced from input :
     Exchange-correlation= PBE
                           (   1   4   3   4   0   0   0)
     Any further DFT definition will be discarded
     Please, verify this is what you really want


     Parallelization info
     --------------------
     sticks:   dense  smooth     PW     G-vecs:    dense   smooth      PW
     Min          74      29      9                10722     2722     469
     Max          75      31     10                10739     2738     490
     Sum         889     361    109               128749    32729    5681

     Using Slab Decomposition


     negative rho (up, down):  6.493E-06 0.000E+00
     Reading collected, re-writing distributed wavefunctions
     high-symmetry point:  0.5000 0.2887 0.0000   x coordinate   0.0000
     high-symmetry point:  0.0000 0.0000 0.0000   x coordinate   0.5774
     high-symmetry point:  0.3333 0.5773 0.0000   x coordinate   1.2440
     high-symmetry point:  0.5000 0.2887 0.0000   x coordinate   1.5773

     Plottable bands (eV) written to file graphene.dat.gnu
     Bands written to file graphene.dat

 **************************************************************************

                    xk=(   0.50000,   0.28868,   0.00000  )

     point group C_s (m)    
     there are  2 classes
     the character table:

       E     s    
A'     1.00  1.00
A''    1.00 -1.00

     the symmetry operations in each class and the name of the first element:

     E        1
                                                                 
     s        2
                                                                 

     Band symmetry, C_s (m)     point group:

     e(  1 -  1) =    -15.95848  eV     1   --> A'             
     e(  2 -  2) =    -14.95114  eV     1   --> A'             
     e(  3 -  3) =     -8.09649  eV     1   --> A'             
     e(  4 -  4) =     -4.01286  eV     1   --> A''            
     e(  5 -  5) =      0.06721  eV     1   --> A''            
     e(  6 -  6) =      5.88188  eV     1   --> A'             
     e(  7 -  7) =      9.48767  eV     1   --> A'             
     e(  8 -  8) =      9.63132  eV     1   --> A'             

 **************************************************************************

 **************************************************************************

                    xk=(   0.47500,   0.27424,   0.00000  )

     Band symmetry, C_s (m)     point group:

     e(  1 -  1) =    -16.19313  eV     1   --> A'             
     e(  2 -  2) =    -14.69429  eV     1   --> A'             
     e(  3 -  3) =     -8.08164  eV     1   --> A'             
     e(  4 -  4) =     -4.10922  eV     1   --> A''            
     e(  5 -  5) =      0.18703  eV     1   --> A''            
     e(  6 -  6) =      5.88914  eV     1   --> A'             
     e(  7 -  7) =      8.79517  eV     1   --> A'             
     e(  8 -  8) =      9.71097  eV     1   --> A''            

 **************************************************************************

 **************************************************************************

                    xk=(   0.45000,   0.25981,   0.00000  )

     Band symmetry, C_s (m)     point group:

     e(  1 -  1) =    -16.62824  eV     1   --> A'             
     e(  2 -  2) =    -14.19285  eV     1   --> A'             
     e(  3 -  3) =     -8.03716  eV     1   --> A'             
     e(  4 -  4) =     -4.36874  eV     1   --> A''            
     e(  5 -  5) =      0.51650  eV     1   --> A''            
     e(  6 -  6) =      5.91056  eV     1   --> A'             
     e(  7 -  7) =      8.06858  eV     1   --> A'             
     e(  8 -  8) =      8.98672  eV     1   --> A''            

 **************************************************************************

 **************************************************************************

                    xk=(   0.42500,   0.24537,   0.00000  )

     Band symmetry, C_s (m)     point group:

     e(  1 -  1) =    -17.09024  eV     1   --> A'             
     e(  2 -  2) =    -13.62093  eV     1   --> A'             
     e(  3 -  3) =     -7.96342  eV     1   --> A'             
     e(  4 -  4) =     -4.73179  eV     1   --> A''            
     e(  5 -  5) =      0.99490  eV     1   --> A''            
     e(  6 -  6) =      5.94473  eV     1   --> A'             
     e(  7 -  7) =      7.37738  eV     1   --> A'             
     e(  8 -  8) =      8.29281  eV     1   --> A''            

 **************************************************************************

 **************************************************************************

                    xk=(   0.40000,   0.23094,   0.00000  )

     Band symmetry, C_s (m)     point group:

     e(  1 -  1) =    -17.54351  eV     1   --> A'             
     e(  2 -  2) =    -13.01509  eV     1   --> A'             
     e(  3 -  3) =     -7.86095  eV     1   --> A'             
     e(  4 -  4) =     -5.14752  eV     1   --> A''            
     e(  5 -  5) =      1.56952  eV     1   --> A''            
     e(  6 -  6) =      5.98627  eV     1   --> A'             
     e(  7 -  7) =      6.72861  eV     1   --> A'             
     e(  8 -  8) =      7.63389  eV     1   --> A''            

 **************************************************************************

 **************************************************************************

                    xk=(   0.37500,   0.21651,   0.00000  )

     Band symmetry, C_s (m)     point group:

     e(  1 -  1) =    -17.97803  eV     1   --> A'             
     e(  2 -  2) =    -12.38672  eV     1   --> A'             
     e(  3 -  3) =     -7.73057  eV     1   --> A'             
     e(  4 -  4) =     -5.58309  eV     1   --> A''            
     e(  5 -  5) =      2.20482  eV     1   --> A''            
     e(  6 -  6) =      5.95984  eV     1   --> A'             
     e(  7 -  7) =      6.19729  eV     1   --> A'             
     e(  8 -  8) =      7.01219  eV     1   --> A''            

 **************************************************************************

 **************************************************************************

                    xk=(   0.35000,   0.20207,   0.00000  )

     Band symmetry, C_s (m)     point group:

     e(  1 -  1) =    -18.38975  eV     1   --> A'             
     e(  2 -  2) =    -11.74166  eV     1   --> A'             
     e(  3 -  3) =     -7.57341  eV     1   --> A'             
     e(  4 -  4) =     -6.01888  eV     1   --> A''            
     e(  5 -  5) =      2.87737  eV     1   --> A''            
     e(  6 -  6) =      5.48472  eV     1   --> A'             
     e(  7 -  7) =      6.16097  eV     1   --> A'             
     e(  8 -  8) =      6.42939  eV     1   --> A''            

 **************************************************************************

 **************************************************************************

                    xk=(   0.32500,   0.18764,   0.00000  )

     Band symmetry, C_s (m)     point group:

     e(  1 -  1) =    -18.77664  eV     1   --> A'             
     e(  2 -  2) =    -11.08442  eV     1   --> A'             
     e(  3 -  3) =     -7.39093  eV     1   --> A'             
     e(  4 -  4) =     -6.44308  eV     1   --> A''            
     e(  5 -  5) =      3.56966  eV     1   --> A''            
     e(  6 -  6) =      4.95150  eV     1   --> A'             
     e(  7 -  7) =      5.88783  eV     1   --> A''            
     e(  8 -  8) =      6.17145  eV     1   --> A'             

 **************************************************************************

 **************************************************************************

                    xk=(   0.30000,   0.17321,   0.00000  )

     Band symmetry, C_s (m)     point group:

     e(  1 -  1) =    -19.13743  eV     1   --> A'             
     e(  2 -  2) =    -10.41928  eV     1   --> A'             
     e(  3 -  3) =     -7.18501  eV     1   --> A'             
     e(  4 -  4) =     -6.84829  eV     1   --> A''            
     e(  5 -  5) =      4.26135  eV     1   --> A''            
     e(  6 -  6) =      4.45080  eV     1   --> A'             
     e(  7 -  7) =      5.39589  eV     1   --> A''            
     e(  8 -  8) =      5.73727  eV     1   --> A'             

 **************************************************************************

 **************************************************************************

                    xk=(   0.27500,   0.15877,   0.00000  )

     Band symmetry, C_s (m)     point group:

     e(  1 -  1) =    -19.47126  eV     1   --> A'             
     e(  2 -  2) =     -9.75088  eV     1   --> A'             
     e(  3 -  3) =     -7.22968  eV     1   --> A''            
     e(  4 -  4) =     -6.95806  eV     1   --> A'             
     e(  5 -  5) =      3.98800  eV     1   --> A'             
     e(  6 -  6) =      4.76109  eV     1   --> A''            
     e(  7 -  7) =      5.13407  eV     1   --> A''            
     e(  8 -  8) =      5.27002  eV     1   --> A'             

 **************************************************************************

 **************************************************************************

                    xk=(   0.25000,   0.14434,   0.00000  )

     Band symmetry, C_s (m)     point group:

     e(  1 -  1) =    -19.77753  eV     1   --> A'             
     e(  2 -  2) =     -9.08460  eV     1   --> A'             
     e(  3 -  3) =     -7.58397  eV     1   --> A''            
     e(  4 -  4) =     -6.71311  eV     1   --> A'             
     e(  5 -  5) =      3.56438  eV     1   --> A'             
     e(  6 -  6) =      4.44544  eV     1   --> A''            
     e(  7 -  7) =      4.84008  eV     1   --> A'             
     e(  8 -  8) =      5.71284  eV     1   --> A''            

 **************************************************************************

 **************************************************************************

                    xk=(   0.22500,   0.12990,   0.00000  )

     Band symmetry, C_s (m)     point group:

     e(  1 -  1) =    -20.05577  eV     1   --> A'             
     e(  2 -  2) =     -8.42685  eV     1   --> A'             
     e(  3 -  3) =     -7.90887  eV     1   --> A''            
     e(  4 -  4) =     -6.45403  eV     1   --> A'             
     e(  5 -  5) =      3.18048  eV     1   --> A'             
     e(  6 -  6) =      4.07005  eV     1   --> A''            
     e(  7 -  7) =      4.45026  eV     1   --> A'             
     e(  8 -  8) =      6.28619  eV     1   --> A''            

 **************************************************************************

 **************************************************************************

                    xk=(   0.20000,   0.11547,   0.00000  )

     Band symmetry, C_s (m)     point group:

     e(  1 -  1) =    -20.30555  eV     1   --> A'             
     e(  2 -  2) =     -8.20262  eV     1   --> A''            
     e(  3 -  3) =     -7.78523  eV     1   --> A'             
     e(  4 -  4) =     -6.18556  eV     1   --> A'             
     e(  5 -  5) =      2.83660  eV     1   --> A'             
     e(  6 -  6) =      3.72741  eV     1   --> A''            
     e(  7 -  7) =      4.10115  eV     1   --> A'             
     e(  8 -  8) =      6.07839  eV     1   --> A''            

 **************************************************************************

 **************************************************************************

                    xk=(   0.17500,   0.10104,   0.00000  )

     Band symmetry, C_s (m)     point group:

     e(  1 -  1) =    -20.52658  eV     1   --> A'             
     e(  2 -  2) =     -8.46399  eV     1   --> A''            
     e(  3 -  3) =     -7.16885  eV     1   --> A'             
     e(  4 -  4) =     -5.91370  eV     1   --> A'             
     e(  5 -  5) =      2.53293  eV     1   --> A'             
     e(  6 -  6) =      3.42321  eV     1   --> A''            
     e(  7 -  7) =      3.79297  eV     1   --> A'             
     e(  8 -  8) =      5.78365  eV     1   --> A''            

 **************************************************************************

 **************************************************************************

                    xk=(   0.15000,   0.08660,   0.00000  )

     Band symmetry, C_s (m)     point group:

     e(  1 -  1) =    -20.71860  eV     1   --> A'             
     e(  2 -  2) =     -8.69204  eV     1   --> A''            
     e(  3 -  3) =     -6.58866  eV     1   --> A'             
     e(  4 -  4) =     -5.64575  eV     1   --> A'             
     e(  5 -  5) =      2.26960  eV     1   --> A'             
     e(  6 -  6) =      3.15879  eV     1   --> A''            
     e(  7 -  7) =      3.52581  eV     1   --> A'             
     e(  8 -  8) =      5.52340  eV     1   --> A''            

 **************************************************************************

 **************************************************************************

                    xk=(   0.12500,   0.07217,   0.00000  )

     Band symmetry, C_s (m)     point group:

     e(  1 -  1) =    -20.88140  eV     1   --> A'             
     e(  2 -  2) =     -8.88602  eV     1   --> A''            
     e(  3 -  3) =     -6.05754  eV     1   --> A'             
     e(  4 -  4) =     -5.39053  eV     1   --> A'             
     e(  5 -  5) =      2.04670  eV     1   --> A'             
     e(  6 -  6) =      2.93467  eV     1   --> A''            
     e(  7 -  7) =      3.29973  eV     1   --> A'             
     e(  8 -  8) =      5.30200  eV     1   --> A''            

 **************************************************************************

 **************************************************************************

                    xk=(   0.10000,   0.05774,   0.00000  )

     Band symmetry, C_s (m)     point group:

     e(  1 -  1) =    -21.01483  eV     1   --> A'             
     e(  2 -  2) =     -9.04542  eV     1   --> A''            
     e(  3 -  3) =     -5.59022  eV     1   --> A'             
     e(  4 -  4) =     -5.15827  eV     1   --> A'             
     e(  5 -  5) =      1.86429  eV     1   --> A'             
     e(  6 -  6) =      2.75109  eV     1   --> A''            
     e(  7 -  7) =      3.11475  eV     1   --> A'             
     e(  8 -  8) =      5.12038  eV     1   --> A''            

 **************************************************************************

 **************************************************************************

                    xk=(   0.07500,   0.04330,   0.00000  )

     Band symmetry, C_s (m)     point group:

     e(  1 -  1) =    -21.11873  eV     1   --> A'             
     e(  2 -  2) =     -9.16977  eV     1   --> A''            
     e(  3 -  3) =     -5.20271  eV     1   --> A'             
     e(  4 -  4) =     -4.96018  eV     1   --> A'             
     e(  5 -  5) =      1.72242  eV     1   --> A'             
     e(  6 -  6) =      2.60820  eV     1   --> A''            
     e(  7 -  7) =      2.97089  eV     1   --> A'             
     e(  8 -  8) =      4.97891  eV     1   --> A''            

 **************************************************************************

 **************************************************************************

                    xk=(   0.05000,   0.02887,   0.00000  )

     Band symmetry, C_s (m)     point group:

     e(  1 -  1) =    -21.19302  eV     1   --> A'             
     e(  2 -  2) =     -9.25882  eV     1   --> A''            
     e(  3 -  3) =     -4.91150  eV     1   --> A'             
     e(  4 -  4) =     -4.80742  eV     1   --> A'             
     e(  5 -  5) =      1.62108  eV     1   --> A'             
     e(  6 -  6) =      2.50608  eV     1   --> A''            
     e(  7 -  7) =      2.86814  eV     1   --> A'             
     e(  8 -  8) =      4.87776  eV     1   --> A''            

 **************************************************************************

 **************************************************************************

                    xk=(   0.02500,   0.01443,   0.00000  )

     Band symmetry, C_s (m)     point group:

     e(  1 -  1) =    -21.23762  eV     1   --> A'             
     e(  2 -  2) =     -9.31233  eV     1   --> A''            
     e(  3 -  3) =     -4.73424  eV     1   --> A'             
     e(  4 -  4) =     -4.70681  eV     1   --> A'             
     e(  5 -  5) =      1.56029  eV     1   --> A'             
     e(  6 -  6) =      2.44480  eV     1   --> A''            
     e(  7 -  7) =      2.80650  eV     1   --> A'             
     e(  8 -  8) =      4.81704  eV     1   --> A''            

 **************************************************************************

 **************************************************************************

                    xk=(   0.00000,   0.00000,   0.00000  )

     point group C_2v (mm2) 
     there are  4 classes
     the character table:

       E     C2    s_v   s_v' 
A_1    1.00  1.00  1.00  1.00
A_2    1.00  1.00 -1.00 -1.00
B_1    1.00 -1.00  1.00 -1.00
B_2    1.00 -1.00 -1.00  1.00

     the symmetry operations in each class and the name of the first element:

     E        1
                                                                 
     C2       2
                                                                 
     s_v      3
                                                                 
     s_v'     4
                                                                 

     Band symmetry, C_2v (mm2)  point group:

     e(  1 -  1) =    -21.25249  eV     1   --> A_1  D_1  S_1  
     e(  2 -  2) =     -9.33019  eV     1   --> B_2  D_4  S_4  
     e(  3 -  3) =     -4.68613  eV     1   --> A_1  D_1  S_1  
     e(  4 -  4) =     -4.66024  eV     1   --> B_1  D_3  S_3  
     e(  5 -  5) =      1.54003  eV     1   --> A_1  D_1  S_1  
     e(  6 -  6) =      2.42436  eV     1   --> B_2  D_4  S_4  
     e(  7 -  7) =      2.78595  eV     1   --> A_1  D_1  S_1  
     e(  8 -  8) =      4.79680  eV     1   --> B_2  D_4  S_4  

 **************************************************************************

 **************************************************************************

                    xk=(   0.01667,   0.02887,   0.00000  )

     point group C_s (m)    
     there are  2 classes
     the character table:

       E     s    
A'     1.00  1.00
A''    1.00 -1.00

     the symmetry operations in each class and the name of the first element:

     E        1
                                                                 
     s        2
                                                                 

     Band symmetry, C_s (m)     point group:

     e(  1 -  1) =    -21.23266  eV     1   --> A'             
     e(  2 -  2) =     -9.30637  eV     1   --> A''            
     e(  3 -  3) =     -4.76379  eV     1   --> A'             
     e(  4 -  4) =     -4.70852  eV     1   --> A'             
     e(  5 -  5) =      1.56705  eV     1   --> A'             
     e(  6 -  6) =      2.45161  eV     1   --> A''            
     e(  7 -  7) =      2.81335  eV     1   --> A'             
     e(  8 -  8) =      4.82379  eV     1   --> A''            

 **************************************************************************

 **************************************************************************

                    xk=(   0.03333,   0.05773,   0.00000  )

     Band symmetry, C_s (m)     point group:

     e(  1 -  1) =    -21.17321  eV     1   --> A'             
     e(  2 -  2) =     -9.23504  eV     1   --> A''            
     e(  3 -  3) =     -4.99862  eV     1   --> A'             
     e(  4 -  4) =     -4.84095  eV     1   --> A'             
     e(  5 -  5) =      1.64811  eV     1   --> A'             
     e(  6 -  6) =      2.53332  eV     1   --> A''            
     e(  7 -  7) =      2.89554  eV     1   --> A'             
     e(  8 -  8) =      4.90475  eV     1   --> A''            

 **************************************************************************

 **************************************************************************

                    xk=(   0.05000,   0.08660,   0.00000  )

     Band symmetry, C_s (m)     point group:

     e(  1 -  1) =    -21.07421  eV     1   --> A'             
     e(  2 -  2) =     -9.11637  eV     1   --> A''            
     e(  3 -  3) =     -5.36543  eV     1   --> A'             
     e(  4 -  4) =     -5.05435  eV     1   --> A'             
     e(  5 -  5) =      1.78324  eV     1   --> A'             
     e(  6 -  6) =      2.66946  eV     1   --> A''            
     e(  7 -  7) =      3.03255  eV     1   --> A'             
     e(  8 -  8) =      5.03958  eV     1   --> A''            

 **************************************************************************

 **************************************************************************

                    xk=(   0.06667,   0.11547,   0.00000  )

     Band symmetry, C_s (m)     point group:

     e(  1 -  1) =    -20.93578  eV     1   --> A'             
     e(  2 -  2) =     -8.95077  eV     1   --> A''            
     e(  3 -  3) =     -5.83308  eV     1   --> A'             
     e(  4 -  4) =     -5.34258  eV     1   --> A'             
     e(  5 -  5) =      1.97245  eV     1   --> A'             
     e(  6 -  6) =      2.85993  eV     1   --> A''            
     e(  7 -  7) =      3.22441  eV     1   --> A'             
     e(  8 -  8) =      5.22814  eV     1   --> A''            

 **************************************************************************

 **************************************************************************

                    xk=(   0.08333,   0.14434,   0.00000  )

     Band symmetry, C_s (m)     point group:

     e(  1 -  1) =    -20.75811  eV     1   --> A'             
     e(  2 -  2) =     -8.73875  eV     1   --> A''            
     e(  3 -  3) =     -6.37188  eV     1   --> A'             
     e(  4 -  4) =     -5.69666  eV     1   --> A'             
     e(  5 -  5) =      2.21574  eV     1   --> A'             
     e(  6 -  6) =      3.10460  eV     1   --> A''            
     e(  7 -  7) =      3.47113  eV     1   --> A'             
     e(  8 -  8) =      5.47018  eV     1   --> A''            

 **************************************************************************

 **************************************************************************

                    xk=(   0.10000,   0.17320,   0.00000  )

     Band symmetry, C_s (m)     point group:

     e(  1 -  1) =    -20.54145  eV     1   --> A'             
     e(  2 -  2) =     -8.48102  eV     1   --> A''            
     e(  3 -  3) =     -6.95666  eV     1   --> A'             
     e(  4 -  4) =     -6.10626  eV     1   --> A'             
     e(  5 -  5) =      2.51307  eV     1   --> A'             
     e(  6 -  6) =      3.40326  eV     1   --> A''            
     e(  7 -  7) =      3.77273  eV     1   --> A'             
     e(  8 -  8) =      5.76536  eV     1   --> A''            

 **************************************************************************

 **************************************************************************

                    xk=(   0.11667,   0.20207,   0.00000  )

     Band symmetry, C_s (m)     point group:

     e(  1 -  1) =    -20.28613  eV     1   --> A'             
     e(  2 -  2) =     -8.17854  eV     1   --> A''            
     e(  3 -  3) =     -7.56768  eV     1   --> A'             
     e(  4 -  4) =     -6.56052  eV     1   --> A'             
     e(  5 -  5) =      2.86433  eV     1   --> A'             
     e(  6 -  6) =      3.75563  eV     1   --> A''            
     e(  7 -  7) =      4.12918  eV     1   --> A'             
     e(  8 -  8) =      6.11314  eV     1   --> A''            

 **************************************************************************

 **************************************************************************

                    xk=(   0.13333,   0.23094,   0.00000  )

     Band symmetry, C_s (m)     point group:

     e(  1 -  1) =    -19.99256  eV     1   --> A'             
     e(  2 -  2) =     -8.18989  eV     1   --> A'             
     e(  3 -  3) =     -7.83254  eV     1   --> A''            
     e(  4 -  4) =     -7.04857  eV     1   --> A'             
     e(  5 -  5) =      3.26940  eV     1   --> A'             
     e(  6 -  6) =      4.16126  eV     1   --> A''            
     e(  7 -  7) =      4.54047  eV     1   --> A'             
     e(  8 -  8) =      6.31976  eV     1   --> A''            

 **************************************************************************

 **************************************************************************

                    xk=(   0.15000,   0.25981,   0.00000  )

     Band symmetry, C_s (m)     point group:

     e(  1 -  1) =    -19.66127  eV     1   --> A'             
     e(  2 -  2) =     -8.81211  eV     1   --> A'             
     e(  3 -  3) =     -7.56016  eV     1   --> A'             
     e(  4 -  4) =     -7.44458  eV     1   --> A''            
     e(  5 -  5) =      3.72804  eV     1   --> A'             
     e(  6 -  6) =      4.61951  eV     1   --> A''            
     e(  7 -  7) =      5.00653  eV     1   --> A'             
     e(  8 -  8) =      5.57762  eV     1   --> A''            

 **************************************************************************

 **************************************************************************

                    xk=(   0.16667,   0.28867,   0.00000  )

     Band symmetry, C_s (m)     point group:

     e(  1 -  1) =    -19.29296  eV     1   --> A'             
     e(  2 -  2) =     -9.42600  eV     1   --> A'             
     e(  3 -  3) =     -8.08582  eV     1   --> A'             
     e(  4 -  4) =     -7.01660  eV     1   --> A''            
     e(  5 -  5) =      4.23995  eV     1   --> A'             
     e(  6 -  6) =      4.82465  eV     1   --> A''            
     e(  7 -  7) =      5.12935  eV     1   --> A''            
     e(  8 -  8) =      5.52727  eV     1   --> A'             

 **************************************************************************

 **************************************************************************

                    xk=(   0.18333,   0.31754,   0.00000  )

     Band symmetry, C_s (m)     point group:

     e(  1 -  1) =    -18.88848  eV     1   --> A'             
     e(  2 -  2) =    -10.02540  eV     1   --> A'             
     e(  3 -  3) =     -8.61705  eV     1   --> A'             
     e(  4 -  4) =     -6.55118  eV     1   --> A''            
     e(  5 -  5) =      4.07185  eV     1   --> A''            
     e(  6 -  6) =      4.80468  eV     1   --> A'             
     e(  7 -  7) =      5.68908  eV     1   --> A''            
     e(  8 -  8) =      6.10256  eV     1   --> A'             

 **************************************************************************

 **************************************************************************

                    xk=(   0.20000,   0.34641,   0.00000  )

     Band symmetry, C_s (m)     point group:

     e(  1 -  1) =    -18.44896  eV     1   --> A'             
     e(  2 -  2) =    -10.60566  eV     1   --> A'             
     e(  3 -  3) =     -9.14618  eV     1   --> A'             
     e(  4 -  4) =     -6.05147  eV     1   --> A''            
     e(  5 -  5) =      3.32839  eV     1   --> A''            
     e(  6 -  6) =      5.42160  eV     1   --> A'             
     e(  7 -  7) =      6.29568  eV     1   --> A''            
     e(  8 -  8) =      6.73220  eV     1   --> A'             

 **************************************************************************

 **************************************************************************

                    xk=(   0.21667,   0.37528,   0.00000  )

     Band symmetry, C_s (m)     point group:

     e(  1 -  1) =    -17.97593  eV     1   --> A'             
     e(  2 -  2) =    -11.16331  eV     1   --> A'             
     e(  3 -  3) =     -9.66634  eV     1   --> A'             
     e(  4 -  4) =     -5.52157  eV     1   --> A''            
     e(  5 -  5) =      2.60167  eV     1   --> A''            
     e(  6 -  6) =      6.08972  eV     1   --> A'             
     e(  7 -  7) =      6.94321  eV     1   --> A''            
     e(  8 -  8) =      7.41588  eV     1   --> A'             

 **************************************************************************

 **************************************************************************

                    xk=(   0.23333,   0.40414,   0.00000  )

     Band symmetry, C_s (m)     point group:

     e(  1 -  1) =    -17.47153  eV     1   --> A'             
     e(  2 -  2) =    -11.69567  eV     1   --> A'             
     e(  3 -  3) =    -10.17119  eV     1   --> A'             
     e(  4 -  4) =     -4.96669  eV     1   --> A''            
     e(  5 -  5) =      1.89774  eV     1   --> A''            
     e(  6 -  6) =      6.80752  eV     1   --> A'             
     e(  7 -  7) =      7.61841  eV     1   --> A''            
     e(  8 -  8) =      8.15309  eV     1   --> A'             

 **************************************************************************

 **************************************************************************

                    xk=(   0.25000,   0.43301,   0.00000  )

     Band symmetry, C_s (m)     point group:

     e(  1 -  1) =    -16.93879  eV     1   --> A'             
     e(  2 -  2) =    -12.20072  eV     1   --> A'             
     e(  3 -  3) =    -10.65446  eV     1   --> A'             
     e(  4 -  4) =     -4.39342  eV     1   --> A''            
     e(  5 -  5) =      1.22159  eV     1   --> A''            
     e(  6 -  6) =      7.57238  eV     1   --> A'             
     e(  7 -  7) =      8.28675  eV     1   --> A''            
     e(  8 -  8) =      8.94294  eV     1   --> A'             

 **************************************************************************

 **************************************************************************

                    xk=(   0.26667,   0.46188,   0.00000  )

     Band symmetry, C_s (m)     point group:

     e(  1 -  1) =    -16.38245  eV     1   --> A'             
     e(  2 -  2) =    -12.67693  eV     1   --> A'             
     e(  3 -  3) =    -11.10917  eV     1   --> A'             
     e(  4 -  4) =     -3.81017  eV     1   --> A''            
     e(  5 -  5) =      0.57717  eV     1   --> A''            
     e(  6 -  6) =      8.37949  eV     1   --> A'             
     e(  7 -  7) =      8.84982  eV     1   --> A''            
     e(  8 -  8) =      9.78357  eV     1   --> A'             

 **************************************************************************

 **************************************************************************

                    xk=(   0.28333,   0.49075,   0.00000  )

     Band symmetry, C_s (m)     point group:

     e(  1 -  1) =    -15.81059  eV     1   --> A'             
     e(  2 -  2) =    -13.12312  eV     1   --> A'             
     e(  3 -  3) =    -11.52609  eV     1   --> A'             
     e(  4 -  4) =     -3.22748  eV     1   --> A''            
     e(  5 -  5) =     -0.03227  eV     1   --> A''            
     e(  6 -  6) =      9.12726  eV     1   --> A''            
     e(  7 -  7) =      9.21896  eV     1   --> A'             
     e(  8 -  8) =     10.66997  eV     1   --> A'             

 **************************************************************************

 **************************************************************************

                    xk=(   0.30000,   0.51961,   0.00000  )

     Band symmetry, C_s (m)     point group:

     e(  1 -  1) =    -15.23857  eV     1   --> A'             
     e(  2 -  2) =    -13.53836  eV     1   --> A'             
     e(  3 -  3) =    -11.88969  eV     1   --> A'             
     e(  4 -  4) =     -2.65817  eV     1   --> A''            
     e(  5 -  5) =     -0.60403  eV     1   --> A''            
     e(  6 -  6) =      9.12795  eV     1   --> A''            
     e(  7 -  7) =     10.06699  eV     1   --> A'             
     e(  8 -  8) =     11.51094  eV     1   --> A'             

 **************************************************************************

 **************************************************************************

                    xk=(   0.31667,   0.54848,   0.00000  )

     Band symmetry, C_s (m)     point group:

     e(  1 -  1) =    -14.69971  eV     1   --> A'             
     e(  2 -  2) =    -13.92196  eV     1   --> A'             
     e(  3 -  3) =    -12.16766  eV     1   --> A'             
     e(  4 -  4) =     -2.11717  eV     1   --> A''            
     e(  5 -  5) =     -1.13592  eV     1   --> A''            
     e(  6 -  6) =      9.04985  eV     1   --> A''            
     e(  7 -  7) =     10.85314  eV     1   --> A'             
     e(  8 -  8) =     11.47378  eV     1   --> A'             

 **************************************************************************

 **************************************************************************

                    xk=(   0.33333,   0.57735,   0.00000  )

     Band symmetry, C_s (m)     point group:

     e(  1 -  1) =    -14.27555  eV     1   --> A'             
     e(  2 -  2) =    -14.26702  eV     1   --> A'             
     e(  3 -  3) =    -12.28708  eV     1   --> A'             
     e(  4 -  4) =     -1.62909  eV     1   --> A''            
     e(  5 -  5) =     -1.61754  eV     1   --> A''            
     e(  6 -  6) =      9.01068  eV     1   --> A''            
     e(  7 -  7) =     11.33132  eV     1   --> A'             
     e(  8 -  8) =     11.33975  eV     1   --> A'             

 **************************************************************************

 **************************************************************************

                    xk=(   0.34167,   0.56292,   0.00000  )

     Band symmetry, C_s (m)     point group:

     e(  1 -  1) =    -14.43694  eV     1   --> A'             
     e(  2 -  2) =    -14.13198  eV     1   --> A'             
     e(  3 -  3) =    -12.25094  eV     1   --> A'             
     e(  4 -  4) =     -1.85527  eV     1   --> A''            
     e(  5 -  5) =     -1.39349  eV     1   --> A''            
     e(  6 -  6) =      9.02206  eV     1   --> A''            
     e(  7 -  7) =     11.22989  eV     1   --> A'             
     e(  8 -  8) =     11.35641  eV     1   --> A'             

 **************************************************************************

 **************************************************************************

                    xk=(   0.35000,   0.54848,   0.00000  )

     Band symmetry, C_s (m)     point group:

     e(  1 -  1) =    -14.59222  eV     1   --> A'             
     e(  2 -  2) =    -14.06087  eV     1   --> A'             
     e(  3 -  3) =    -12.13789  eV     1   --> A'             
     e(  4 -  4) =     -2.07330  eV     1   --> A''            
     e(  5 -  5) =     -1.18320  eV     1   --> A''            
     e(  6 -  6) =      9.05802  eV     1   --> A''            
     e(  7 -  7) =     11.11025  eV     1   --> A'             
     e(  8 -  8) =     11.26751  eV     1   --> A'             

 **************************************************************************

 **************************************************************************

                    xk=(   0.35833,   0.53405,   0.00000  )

     Band symmetry, C_s (m)     point group:

     e(  1 -  1) =    -14.73928  eV     1   --> A'             
     e(  2 -  2) =    -14.04965  eV     1   --> A'             
     e(  3 -  3) =    -11.95477  eV     1   --> A'             
     e(  4 -  4) =     -2.28027  eV     1   --> A''            
     e(  5 -  5) =     -0.99073  eV     1   --> A''            
     e(  6 -  6) =      9.11949  eV     1   --> A''            
     e(  7 -  7) =     10.97943  eV     1   --> A'             
     e(  8 -  8) =     11.11849  eV     1   --> A'             

 **************************************************************************

 **************************************************************************

                    xk=(   0.36667,   0.51961,   0.00000  )

     Band symmetry, C_s (m)     point group:

     e(  1 -  1) =    -14.87805  eV     1   --> A'             
     e(  2 -  2) =    -14.08227  eV     1   --> A'             
     e(  3 -  3) =    -11.71859  eV     1   --> A'             
     e(  4 -  4) =     -2.47600  eV     1   --> A''            
     e(  5 -  5) =     -0.81697  eV     1   --> A''            
     e(  6 -  6) =      9.20590  eV     1   --> A''            
     e(  7 -  7) =     10.84207  eV     1   --> A'             
     e(  8 -  8) =     10.91163  eV     1   --> A'             

 **************************************************************************

 **************************************************************************

                    xk=(   0.37500,   0.50518,   0.00000  )

     Band symmetry, C_s (m)     point group:

     e(  1 -  1) =    -15.00854  eV     1   --> A'             
     e(  2 -  2) =    -14.14229  eV     1   --> A'             
     e(  3 -  3) =    -11.44699  eV     1   --> A'             
     e(  4 -  4) =     -2.66040  eV     1   --> A''            
     e(  5 -  5) =     -0.66232  eV     1   --> A''            
     e(  6 -  6) =      9.31512  eV     1   --> A''            
     e(  7 -  7) =     10.61175  eV     1   --> A'             
     e(  8 -  8) =     10.70290  eV     1   --> A'             

 **************************************************************************

 **************************************************************************

                    xk=(   0.38333,   0.49075,   0.00000  )

     Band symmetry, C_s (m)     point group:

     e(  1 -  1) =    -15.13072  eV     1   --> A'             
     e(  2 -  2) =    -14.21737  eV     1   --> A'             
     e(  3 -  3) =    -11.15363  eV     1   --> A'             
     e(  4 -  4) =     -2.83335  eV     1   --> A''            
     e(  5 -  5) =     -0.52669  eV     1   --> A''            
     e(  6 -  6) =      9.44341  eV     1   --> A''            
     e(  7 -  7) =     10.22255  eV     1   --> A'             
     e(  8 -  8) =     10.56397  eV     1   --> A'             

 **************************************************************************

 **************************************************************************

                    xk=(   0.39167,   0.47631,   0.00000  )

     Band symmetry, C_s (m)     point group:

     e(  1 -  1) =    -15.24454  eV     1   --> A'             
     e(  2 -  2) =    -14.29945  eV     1   --> A'             
     e(  3 -  3) =    -10.84824  eV     1   --> A'             
     e(  4 -  4) =     -2.99475  eV     1   --> A''            
     e(  5 -  5) =     -0.40948  eV     1   --> A''            
     e(  6 -  6) =      9.58531  eV     1   --> A''            
     e(  7 -  7) =      9.78788  eV     1   --> A'             
     e(  8 -  8) =     10.42859  eV     1   --> A'             

 **************************************************************************

 **************************************************************************

                    xk=(   0.40000,   0.46188,   0.00000  )

     Band symmetry, C_s (m)     point group:

     e(  1 -  1) =    -15.35000  eV     1   --> A'             
     e(  2 -  2) =    -14.38333  eV     1   --> A'             
     e(  3 -  3) =    -10.53777  eV     1   --> A'             
     e(  4 -  4) =     -3.14452  eV     1   --> A''            
     e(  5 -  5) =     -0.30971  eV     1   --> A''            
     e(  6 -  6) =      9.33681  eV     1   --> A'             
     e(  7 -  7) =      9.73366  eV     1   --> A''            
     e(  8 -  8) =     10.29865  eV     1   --> A'             

 **************************************************************************

 **************************************************************************

                    xk=(   0.40833,   0.44745,   0.00000  )

     Band symmetry, C_s (m)     point group:

     e(  1 -  1) =    -15.44707  eV     1   --> A'             
     e(  2 -  2) =    -14.46575  eV     1   --> A'             
     e(  3 -  3) =    -10.22773  eV     1   --> A'             
     e(  4 -  4) =     -3.28256  eV     1   --> A''            
     e(  5 -  5) =     -0.22606  eV     1   --> A''            
     e(  6 -  6) =      8.88484  eV     1   --> A'             
     e(  7 -  7) =      9.87990  eV     1   --> A''            
     e(  8 -  8) =     10.17567  eV     1   --> A'             

 **************************************************************************

 **************************************************************************

                    xk=(   0.41667,   0.43301,   0.00000  )

     Band symmetry, C_s (m)     point group:

     e(  1 -  1) =    -15.53575  eV     1   --> A'             
     e(  2 -  2) =    -14.54454  eV     1   --> A'             
     e(  3 -  3) =     -9.92281  eV     1   --> A'             
     e(  4 -  4) =     -3.40884  eV     1   --> A''            
     e(  5 -  5) =     -0.15699  eV     1   --> A''            
     e(  6 -  6) =      8.44202  eV     1   --> A'             
     e(  7 -  7) =     10.01491  eV     1   --> A''            
     e(  8 -  8) =     10.06084  eV     1   --> A'             

 **************************************************************************

 **************************************************************************

                    xk=(   0.42500,   0.41858,   0.00000  )

     Band symmetry, C_s (m)     point group:

     e(  1 -  1) =    -15.61600  eV     1   --> A'             
     e(  2 -  2) =    -14.61821  eV     1   --> A'             
     e(  3 -  3) =     -9.62725  eV     1   --> A'             
     e(  4 -  4) =     -3.52323  eV     1   --> A''            
     e(  5 -  5) =     -0.10078  eV     1   --> A''            
     e(  6 -  6) =      8.01603  eV     1   --> A'             
     e(  7 -  7) =      9.95506  eV     1   --> A'             
     e(  8 -  8) =     10.13142  eV     1   -->   ?

 **************************************************************************

 **************************************************************************

                    xk=(   0.43333,   0.40414,   0.00000  )

     Band symmetry, C_s (m)     point group:

     e(  1 -  1) =    -15.68783  eV     1   --> A'             
     e(  2 -  2) =    -14.68579  eV     1   --> A'             
     e(  3 -  3) =     -9.34537  eV     1   --> A'             
     e(  4 -  4) =     -3.62574  eV     1   --> A''            
     e(  5 -  5) =     -0.05576  eV     1   --> A''            
     e(  6 -  6) =      7.61340  eV     1   --> A'             
     e(  7 -  7) =      9.85904  eV     1   --> A'             
     e(  8 -  8) =     10.02887  eV     1   --> A'             

 **************************************************************************

 **************************************************************************

                    xk=(   0.44167,   0.38971,   0.00000  )

     Band symmetry, C_s (m)     point group:

     e(  1 -  1) =    -15.75123  eV     1   --> A'             
     e(  2 -  2) =    -14.74654  eV     1   --> A'             
     e(  3 -  3) =     -9.08140  eV     1   --> A'             
     e(  4 -  4) =     -3.71630  eV     1   --> A''            
     e(  5 -  5) =     -0.02027  eV     1   --> A''            
     e(  6 -  6) =      7.24010  eV     1   --> A'             
     e(  7 -  7) =      9.77333  eV     1   --> A'             
     e(  8 -  8) =      9.93646  eV     1   --> A'             

 **************************************************************************

 **************************************************************************

                    xk=(   0.45000,   0.37528,   0.00000  )

     Band symmetry, C_s (m)     point group:

     e(  1 -  1) =    -15.80620  eV     1   --> A'             
     e(  2 -  2) =    -14.79998  eV     1   --> A'             
     e(  3 -  3) =     -8.83985  eV     1   --> A'             
     e(  4 -  4) =     -3.79488  eV     1   --> A''            
     e(  5 -  5) =      0.00721  eV     1   --> A''            
     e(  6 -  6) =      6.90177  eV     1   --> A'             
     e(  7 -  7) =      9.69835  eV     1   --> A'             
     e(  8 -  8) =      9.85598  eV     1   --> A'             

 **************************************************************************

 **************************************************************************

                    xk=(   0.45833,   0.36084,   0.00000  )

     Band symmetry, C_s (m)     point group:

     e(  1 -  1) =    -15.85272  eV     1   --> A'             
     e(  2 -  2) =    -14.84569  eV     1   --> A'             
     e(  3 -  3) =     -8.62514  eV     1   --> A'             
     e(  4 -  4) =     -3.86142  eV     1   --> A''            
     e(  5 -  5) =      0.02807  eV     1   --> A''            
     e(  6 -  6) =      6.60386  eV     1   --> A'             
     e(  7 -  7) =      9.63443  eV     1   --> A'             
     e(  8 -  8) =      9.78761  eV     1   --> A'             

 **************************************************************************

 **************************************************************************

                    xk=(   0.46667,   0.34641,   0.00000  )

     Band symmetry, C_s (m)     point group:

     e(  1 -  1) =    -15.89079  eV     1   --> A'             
     e(  2 -  2) =    -14.88340  eV     1   --> A'             
     e(  3 -  3) =     -8.44174  eV     1   --> A'             
     e(  4 -  4) =     -3.91590  eV     1   --> A''            
     e(  5 -  5) =      0.04348  eV     1   --> A''            
     e(  6 -  6) =      6.35154  eV     1   --> A'             
     e(  7 -  7) =      9.58182  eV     1   --> A'             
     e(  8 -  8) =      9.73149  eV     1   --> A'             

 **************************************************************************

 **************************************************************************

                    xk=(   0.47500,   0.33198,   0.00000  )

     Band symmetry, C_s (m)     point group:

     e(  1 -  1) =    -15.92040  eV     1   --> A'             
     e(  2 -  2) =    -14.91291  eV     1   --> A'             
     e(  3 -  3) =     -8.29389  eV     1   --> A'             
     e(  4 -  4) =     -3.95829  eV     1   --> A''            
     e(  5 -  5) =      0.05444  eV     1   --> A''            
     e(  6 -  6) =      6.14954  eV     1   --> A'             
     e(  7 -  7) =      9.54073  eV     1   --> A'             
     e(  8 -  8) =      9.68773  eV     1   --> A'             

 **************************************************************************

 **************************************************************************

                    xk=(   0.48333,   0.31754,   0.00000  )

     Band symmetry, C_s (m)     point group:

     e(  1 -  1) =    -15.94155  eV     1   --> A'             
     e(  2 -  2) =    -14.93412  eV     1   --> A'             
     e(  3 -  3) =     -8.18530  eV     1   --> A'             
     e(  4 -  4) =     -3.98861  eV     1   --> A''            
     e(  5 -  5) =      0.06171  eV     1   --> A''            
     e(  6 -  6) =      6.00199  eV     1   --> A'             
     e(  7 -  7) =      9.51128  eV     1   --> A'             
     e(  8 -  8) =      9.65641  eV     1   --> A'             

 **************************************************************************

 **************************************************************************

                    xk=(   0.49167,   0.30311,   0.00000  )

     Band symmetry, C_s (m)     point group:

     e(  1 -  1) =    -15.95425  eV     1   --> A'             
     e(  2 -  2) =    -14.94689  eV     1   --> A'             
     e(  3 -  3) =     -8.11886  eV     1   --> A'             
     e(  4 -  4) =     -4.00680  eV     1   --> A''            
     e(  5 -  5) =      0.06586  eV     1   --> A''            
     e(  6 -  6) =      5.91209  eV     1   --> A'             
     e(  7 -  7) =      9.49357  eV     1   --> A'             
     e(  8 -  8) =      9.63760  eV     1   --> A'             

 **************************************************************************

 **************************************************************************

                    xk=(   0.50000,   0.28868,   0.00000  )

     Band symmetry, C_s (m)     point group:

     e(  1 -  1) =    -15.95848  eV     1   --> A'             
     e(  2 -  2) =    -14.95114  eV     1   --> A'             
     e(  3 -  3) =     -8.09649  eV     1   --> A'             
     e(  4 -  4) =     -4.01286  eV     1   --> A''            
     e(  5 -  5) =      0.06721  eV     1   --> A''            
     e(  6 -  6) =      5.88188  eV     1   --> A'             
     e(  7 -  7) =      9.48767  eV     1   --> A'             
     e(  8 -  8) =      9.63132  eV     1   --> A'             

 **************************************************************************

     BANDS        :      2.49s CPU      3.30s WALL


   This run was terminated on:  18:13:41  27Jun2025            

=------------------------------------------------------------------------------=
   JOB DONE.
=------------------------------------------------------------------------------=
