
     Program PWSCF v.7.1 starts on 27Jun2025 at 18:13:12 

     This program is part of the open-source Quantum ESPRESSO suite
     for quantum simulation of materials; please cite
         "P. Giannozzi et al., J. Phys.:Condens. Matter 21 395502 (2009);
         "P. Giannozzi et al., J. Phys.:Condens. Matter 29 465901 (2017);
         "P. Giannozzi et al., J. Chem. Phys. 152 154105 (2020);
          URL http://www.quantum-espresso.org", 
     in publications or presentations arising from this work. More details at
     http://www.quantum-espresso.org/quote

     Parallel version (MPI & OpenMP), running on      12 processor cores
     Number of MPI processes:                12
     Threads/MPI process:                     1

     MPI processes distributed on     1 nodes
     466323 MiB available memory on the printing compute node when the environment starts

     Waiting for input...
     Reading input from standard input

     Current dimensions of program PWSCF are:
     Max number of different atomic species (ntypx) = 10
     Max number of k-points (npk) =  40000
     Max angular momentum in pseudopotentials (lmaxx) =  4

     Atomic positions and unit cell read from directory:
     ./graphene.save/

     file C.pbe-n-kjpaw_psl.1.0.0.UPF: wavefunction(s)  2S 2P renormalized

     R & G space division:  proc/nbgrp/npool/nimage =      12
     Subspace diagonalization in iterative solution of the eigenvalue problem:
     a serial algorithm will be used


     Parallelization info
     --------------------
     sticks:   dense  smooth     PW     G-vecs:    dense   smooth      PW
     Min          74      29      9                10722     2722     469
     Max          75      31     10                10739     2738     490
     Sum         889     361    109               128749    32729    5681

     Using Slab Decomposition



     bravais-lattice index     =            4
     lattice parameter (alat)  =       4.6410  a.u.
     unit-cell volume          =     519.4175 (a.u.)^3
     number of atoms/cell      =            2
     number of atomic types    =            1
     number of electrons       =         8.00
     number of Kohn-Sham states=            8
     kinetic-energy cutoff     =      60.0000  Ry
     charge density cutoff     =     600.0000  Ry
     Exchange-correlation= SLA  PW   PBX  PBC
                           (   1   4   3   4   0   0   0)

     celldm(1)=   4.641000  celldm(2)=   0.000000  celldm(3)=   6.000000
     celldm(4)=   0.000000  celldm(5)=   0.000000  celldm(6)=   0.000000

     crystal axes: (cart. coord. in units of alat)
               a(1) = (   1.000000   0.000000   0.000000 )  
               a(2) = (  -0.500000   0.866025   0.000000 )  
               a(3) = (   0.000000   0.000000   6.000000 )  

     reciprocal axes: (cart. coord. in units 2 pi/alat)
               b(1) = (  1.000000  0.577350 -0.000000 )  
               b(2) = (  0.000000  1.154701  0.000000 )  
               b(3) = (  0.000000 -0.000000  0.166667 )  


     PseudoPot. # 1 for C  read from file:
     ./C.pbe-n-kjpaw_psl.1.0.0.UPF
     MD5 check sum: 5f16ad9a65e90284d1d834d4ab3b0f7d
     Pseudo is Projector augmented-wave + core cor, Zval =  4.0
     Generated using &quot;atomic&quot; code by A. Dal Corso  v.6.3
     Shape of augmentation charge: PSQ
     Using radial grid of 1073 points,  4 beta functions with: 
                l(1) =   0
                l(2) =   0
                l(3) =   1
                l(4) =   1
     Q(r) pseudized with 0 coefficients 


     atomic species   valence    mass     pseudopotential
        C              4.00    12.01100     C ( 1.00)

      4 Sym. Ops. (no inversion) found ( 2 have fractional translation)


                                    s                        frac. trans.

      isym =  1     identity                                     

 cryst.   s( 1) = (     1          0          0      )
                  (     0          1          0      )
                  (     0          0          1      )

 cart.    s( 1) = (  1.0000000  0.0000000  0.0000000 )
                  (  0.0000000  1.0000000  0.0000000 )
                  (  0.0000000  0.0000000  1.0000000 )


      isym =  2     180 deg rotation - cart. axis [0,1,0]        

 cryst.   s( 2) = (    -1          0          0      )    f =(  0.0000000 )
                  (     1          1          0      )       (  0.0000000 )
                  (     0          0         -1      )       ( -0.1666667 )

 cart.    s( 2) = ( -1.0000000  0.0000000  0.0000000 )    f =(  0.0000000 )
                  (  0.0000000  1.0000000  0.0000000 )       (  0.0000000 )
                  (  0.0000000  0.0000000 -1.0000000 )       ( -1.0000000 )


      isym =  3     inv. 180 deg rotation - cart. axis [0,0,1]   

 cryst.   s( 3) = (     1          0          0      )    f =(  0.0000000 )
                  (     0          1          0      )       (  0.0000000 )
                  (     0          0         -1      )       ( -0.1666667 )

 cart.    s( 3) = (  1.0000000  0.0000000  0.0000000 )    f =(  0.0000000 )
                  (  0.0000000  1.0000000  0.0000000 )       (  0.0000000 )
                  (  0.0000000  0.0000000 -1.0000000 )       ( -1.0000000 )


      isym =  4     inv. 180 deg rotation - cart. axis [1,0,0]   

 cryst.   s( 4) = (    -1          0          0      )
                  (     1          1          0      )
                  (     0          0          1      )

 cart.    s( 4) = ( -1.0000000  0.0000000  0.0000000 )
                  (  0.0000000  1.0000000  0.0000000 )
                  (  0.0000000  0.0000000  1.0000000 )


     point group C_2v (mm2) 
     there are  4 classes
     the character table:

       E     C2    s_v   s_v' 
A_1    1.00  1.00  1.00  1.00
A_2    1.00  1.00 -1.00 -1.00
B_1    1.00 -1.00  1.00 -1.00
B_2    1.00 -1.00 -1.00  1.00

     the symmetry operations in each class and the name of the first element:

     E        1
          identity                                               
     C2       2
          180 deg rotation - cart. axis [0,1,0]                  
     s_v      3
          inv. 180 deg rotation - cart. axis [0,0,1]             
     s_v'     4
          inv. 180 deg rotation - cart. axis [1,0,0]             

   Cartesian axes

     site n.     atom                  positions (alat units)
         1           C   tau(   1) = (   0.0000000   0.0000000   0.5000000  )
         2           C   tau(   2) = (   0.0000000   0.5770000   0.5000000  )

   Crystallographic axes

     site n.     atom                  positions (cryst. coord.)
         1           C   tau(   1) = (  0.0000000  0.0000000  0.0833333  )
         2           C   tau(   2) = (  0.3331311  0.6662622  0.0833333  )

     number of k points=    61  Gaussian smearing, width (Ry)=  0.0100
                       cart. coord. in units 2pi/alat
        k(    1) = (   0.5000000   0.2886751   0.0000000), wk =   0.0327869
        k(    2) = (   0.4750000   0.2742414   0.0000000), wk =   0.0327869
        k(    3) = (   0.4500000   0.2598076   0.0000000), wk =   0.0327869
        k(    4) = (   0.4250000   0.2453739   0.0000000), wk =   0.0327869
        k(    5) = (   0.4000000   0.2309401   0.0000000), wk =   0.0327869
        k(    6) = (   0.3750000   0.2165064   0.0000000), wk =   0.0327869
        k(    7) = (   0.3500000   0.2020726   0.0000000), wk =   0.0327869
        k(    8) = (   0.3250000   0.1876388   0.0000000), wk =   0.0327869
        k(    9) = (   0.3000000   0.1732051   0.0000000), wk =   0.0327869
        k(   10) = (   0.2750000   0.1587713   0.0000000), wk =   0.0327869
        k(   11) = (   0.2500000   0.1443376   0.0000000), wk =   0.0327869
        k(   12) = (   0.2250000   0.1299038   0.0000000), wk =   0.0327869
        k(   13) = (   0.2000000   0.1154701   0.0000000), wk =   0.0327869
        k(   14) = (   0.1750000   0.1010363   0.0000000), wk =   0.0327869
        k(   15) = (   0.1500000   0.0866025   0.0000000), wk =   0.0327869
        k(   16) = (   0.1250000   0.0721688   0.0000000), wk =   0.0327869
        k(   17) = (   0.1000000   0.0577350   0.0000000), wk =   0.0327869
        k(   18) = (   0.0750000   0.0433013   0.0000000), wk =   0.0327869
        k(   19) = (   0.0500000   0.0288675   0.0000000), wk =   0.0327869
        k(   20) = (   0.0250000   0.0144338   0.0000000), wk =   0.0327869
        k(   21) = (   0.0000000   0.0000000   0.0000000), wk =   0.0327869
        k(   22) = (   0.0166667   0.0288675   0.0000000), wk =   0.0327869
        k(   23) = (   0.0333333   0.0577350   0.0000000), wk =   0.0327869
        k(   24) = (   0.0500000   0.0866025   0.0000000), wk =   0.0327869
        k(   25) = (   0.0666666   0.1154699   0.0000000), wk =   0.0327869
        k(   26) = (   0.0833332   0.1443374   0.0000000), wk =   0.0327869
        k(   27) = (   0.0999999   0.1732049   0.0000000), wk =   0.0327869
        k(   28) = (   0.1166666   0.2020724   0.0000000), wk =   0.0327869
        k(   29) = (   0.1333332   0.2309399   0.0000000), wk =   0.0327869
        k(   30) = (   0.1499998   0.2598074   0.0000000), wk =   0.0327869
        k(   31) = (   0.1666665   0.2886748   0.0000000), wk =   0.0327869
        k(   32) = (   0.1833332   0.3175423   0.0000000), wk =   0.0327869
        k(   33) = (   0.1999998   0.3464098   0.0000000), wk =   0.0327869
        k(   34) = (   0.2166665   0.3752773   0.0000000), wk =   0.0327869
        k(   35) = (   0.2333331   0.4041448   0.0000000), wk =   0.0327869
        k(   36) = (   0.2499997   0.4330123   0.0000000), wk =   0.0327869
        k(   37) = (   0.2666664   0.4618798   0.0000000), wk =   0.0327869
        k(   38) = (   0.2833331   0.4907472   0.0000000), wk =   0.0327869
        k(   39) = (   0.2999997   0.5196147   0.0000000), wk =   0.0327869
        k(   40) = (   0.3166663   0.5484822   0.0000000), wk =   0.0327869
        k(   41) = (   0.3333330   0.5773497   0.0000000), wk =   0.0327869
        k(   42) = (   0.3416664   0.5629160   0.0000000), wk =   0.0327869
        k(   43) = (   0.3499997   0.5484822   0.0000000), wk =   0.0327869
        k(   44) = (   0.3583330   0.5340485   0.0000000), wk =   0.0327869
        k(   45) = (   0.3666664   0.5196148   0.0000000), wk =   0.0327869
        k(   46) = (   0.3749997   0.5051811   0.0000000), wk =   0.0327869
        k(   47) = (   0.3833331   0.4907473   0.0000000), wk =   0.0327869
        k(   48) = (   0.3916664   0.4763136   0.0000000), wk =   0.0327869
        k(   49) = (   0.3999998   0.4618799   0.0000000), wk =   0.0327869
        k(   50) = (   0.4083331   0.4474461   0.0000000), wk =   0.0327869
        k(   51) = (   0.4166665   0.4330124   0.0000000), wk =   0.0327869
        k(   52) = (   0.4249999   0.4185787   0.0000000), wk =   0.0327869
        k(   53) = (   0.4333332   0.4041450   0.0000000), wk =   0.0327869
        k(   54) = (   0.4416665   0.3897112   0.0000000), wk =   0.0327869
        k(   55) = (   0.4499999   0.3752775   0.0000000), wk =   0.0327869
        k(   56) = (   0.4583333   0.3608438   0.0000000), wk =   0.0327869
        k(   57) = (   0.4666666   0.3464100   0.0000000), wk =   0.0327869
        k(   58) = (   0.4750000   0.3319763   0.0000000), wk =   0.0327869
        k(   59) = (   0.4833333   0.3175426   0.0000000), wk =   0.0327869
        k(   60) = (   0.4916667   0.3031089   0.0000000), wk =   0.0327869
        k(   61) = (   0.5000000   0.2886751   0.0000000), wk =   0.0327869

                       cryst. coord.
        k(    1) = (   0.5000000   0.0000000   0.0000000), wk =   0.0327869
        k(    2) = (   0.4750000   0.0000000   0.0000000), wk =   0.0327869
        k(    3) = (   0.4500000   0.0000000   0.0000000), wk =   0.0327869
        k(    4) = (   0.4250000  -0.0000000   0.0000000), wk =   0.0327869
        k(    5) = (   0.4000000   0.0000000   0.0000000), wk =   0.0327869
        k(    6) = (   0.3750000   0.0000000   0.0000000), wk =   0.0327869
        k(    7) = (   0.3500000   0.0000000   0.0000000), wk =   0.0327869
        k(    8) = (   0.3250000  -0.0000000   0.0000000), wk =   0.0327869
        k(    9) = (   0.3000000   0.0000000   0.0000000), wk =   0.0327869
        k(   10) = (   0.2750000   0.0000000   0.0000000), wk =   0.0327869
        k(   11) = (   0.2500000   0.0000000   0.0000000), wk =   0.0327869
        k(   12) = (   0.2250000  -0.0000000   0.0000000), wk =   0.0327869
        k(   13) = (   0.2000000   0.0000000   0.0000000), wk =   0.0327869
        k(   14) = (   0.1750000   0.0000000   0.0000000), wk =   0.0327869
        k(   15) = (   0.1500000   0.0000000   0.0000000), wk =   0.0327869
        k(   16) = (   0.1250000   0.0000000   0.0000000), wk =   0.0327869
        k(   17) = (   0.1000000   0.0000000   0.0000000), wk =   0.0327869
        k(   18) = (   0.0750000   0.0000000   0.0000000), wk =   0.0327869
        k(   19) = (   0.0500000   0.0000000   0.0000000), wk =   0.0327869
        k(   20) = (   0.0250000   0.0000000   0.0000000), wk =   0.0327869
        k(   21) = (   0.0000000   0.0000000   0.0000000), wk =   0.0327869
        k(   22) = (   0.0166667   0.0166667   0.0000000), wk =   0.0327869
        k(   23) = (   0.0333333   0.0333333   0.0000000), wk =   0.0327869
        k(   24) = (   0.0500000   0.0500000   0.0000000), wk =   0.0327869
        k(   25) = (   0.0666666   0.0666666   0.0000000), wk =   0.0327869
        k(   26) = (   0.0833332   0.0833332   0.0000000), wk =   0.0327869
        k(   27) = (   0.0999999   0.0999999   0.0000000), wk =   0.0327869
        k(   28) = (   0.1166666   0.1166665   0.0000000), wk =   0.0327869
        k(   29) = (   0.1333332   0.1333332   0.0000000), wk =   0.0327869
        k(   30) = (   0.1499998   0.1499998   0.0000000), wk =   0.0327869
        k(   31) = (   0.1666665   0.1666665   0.0000000), wk =   0.0327869
        k(   32) = (   0.1833332   0.1833331   0.0000000), wk =   0.0327869
        k(   33) = (   0.1999998   0.1999998   0.0000000), wk =   0.0327869
        k(   34) = (   0.2166665   0.2166664   0.0000000), wk =   0.0327869
        k(   35) = (   0.2333331   0.2333331   0.0000000), wk =   0.0327869
        k(   36) = (   0.2499997   0.2499997   0.0000000), wk =   0.0327869
        k(   37) = (   0.2666664   0.2666664   0.0000000), wk =   0.0327869
        k(   38) = (   0.2833331   0.2833330   0.0000000), wk =   0.0327869
        k(   39) = (   0.2999997   0.2999997   0.0000000), wk =   0.0327869
        k(   40) = (   0.3166663   0.3166663   0.0000000), wk =   0.0327869
        k(   41) = (   0.3333330   0.3333330   0.0000000), wk =   0.0327869
        k(   42) = (   0.3416664   0.3166663   0.0000000), wk =   0.0327869
        k(   43) = (   0.3499997   0.2999997   0.0000000), wk =   0.0327869
        k(   44) = (   0.3583330   0.2833330   0.0000000), wk =   0.0327869
        k(   45) = (   0.3666664   0.2666664   0.0000000), wk =   0.0327869
        k(   46) = (   0.3749997   0.2499997   0.0000000), wk =   0.0327869
        k(   47) = (   0.3833331   0.2333331   0.0000000), wk =   0.0327869
        k(   48) = (   0.3916664   0.2166664   0.0000000), wk =   0.0327869
        k(   49) = (   0.3999998   0.1999998   0.0000000), wk =   0.0327869
        k(   50) = (   0.4083331   0.1833332   0.0000000), wk =   0.0327869
        k(   51) = (   0.4166665   0.1666665   0.0000000), wk =   0.0327869
        k(   52) = (   0.4249999   0.1499999   0.0000000), wk =   0.0327869
        k(   53) = (   0.4333332   0.1333332   0.0000000), wk =   0.0327869
        k(   54) = (   0.4416665   0.1166665   0.0000000), wk =   0.0327869
        k(   55) = (   0.4499999   0.0999999   0.0000000), wk =   0.0327869
        k(   56) = (   0.4583333   0.0833332   0.0000000), wk =   0.0327869
        k(   57) = (   0.4666666   0.0666666   0.0000000), wk =   0.0327869
        k(   58) = (   0.4750000   0.0499999   0.0000000), wk =   0.0327869
        k(   59) = (   0.4833333   0.0333333   0.0000000), wk =   0.0327869
        k(   60) = (   0.4916667   0.0166666   0.0000000), wk =   0.0327869
        k(   61) = (   0.5000000   0.0000000   0.0000000), wk =   0.0327869

     Dense  grid:   128749 G-vectors     FFT dimensions: (  40,  40, 240)

     Smooth grid:    32729 G-vectors     FFT dimensions: (  24,  24, 144)

     Dynamical RAM for                 wfc:       0.04 MB

     Dynamical RAM for     wfc (w. buffer):       0.04 MB

     Dynamical RAM for           str. fact:       0.16 MB

     Dynamical RAM for           local pot:       0.00 MB

     Dynamical RAM for          nlocal pot:       0.08 MB

     Dynamical RAM for                qrad:       0.56 MB

     Dynamical RAM for          rho,v,vnew:       1.22 MB

     Dynamical RAM for           G-vectors:       0.63 MB

     Dynamical RAM for          h,s,v(r/c):       0.01 MB

     Dynamical RAM for          <psi|beta>:       0.00 MB

     Dynamical RAM for                 psi:       0.08 MB

     Dynamical RAM for                hpsi:       0.08 MB

     Dynamical RAM for                spsi:       0.08 MB

     Dynamical RAM for      wfcinit/wfcrot:       0.08 MB

     Dynamical RAM for           addusdens:       7.37 MB

     Estimated static dynamical RAM per process >       4.26 MB

     Estimated max dynamical RAM per process >      11.62 MB

     Estimated total dynamical RAM >     139.46 MB

     The potential is recalculated from file :
     ./graphene.save/charge-density


     negative rho (up, down):  6.493E-06 0.000E+00
     Starting wfcs are    8 randomized atomic wfcs
     Checking if some PAW data can be deallocated... 

     Band Structure Calculation
     Davidson diagonalization with overlap

     Computing kpt #:     1  of    61
     total cpu time spent up to now is        1.5 secs

     Computing kpt #:     2  of    61
     total cpu time spent up to now is        1.6 secs

     Computing kpt #:     3  of    61
     total cpu time spent up to now is        1.7 secs

     Computing kpt #:     4  of    61
     total cpu time spent up to now is        1.7 secs

     Computing kpt #:     5  of    61
     total cpu time spent up to now is        1.8 secs

     Computing kpt #:     6  of    61
     total cpu time spent up to now is        1.9 secs

     Computing kpt #:     7  of    61
     total cpu time spent up to now is        1.9 secs

     Computing kpt #:     8  of    61
     total cpu time spent up to now is        2.0 secs

     Computing kpt #:     9  of    61
     total cpu time spent up to now is        2.1 secs

     Computing kpt #:    10  of    61
     total cpu time spent up to now is        2.2 secs

     Computing kpt #:    11  of    61
     total cpu time spent up to now is        2.2 secs

     Computing kpt #:    12  of    61
     total cpu time spent up to now is        2.3 secs

     Computing kpt #:    13  of    61
     total cpu time spent up to now is        2.4 secs

     Computing kpt #:    14  of    61
     total cpu time spent up to now is        2.5 secs

     Computing kpt #:    15  of    61
     total cpu time spent up to now is        2.5 secs

     Computing kpt #:    16  of    61
     total cpu time spent up to now is        2.6 secs

     Computing kpt #:    17  of    61
     total cpu time spent up to now is        2.7 secs

     Computing kpt #:    18  of    61
     total cpu time spent up to now is        2.7 secs

     Computing kpt #:    19  of    61
     total cpu time spent up to now is        2.8 secs

     Computing kpt #:    20  of    61
     total cpu time spent up to now is        2.9 secs

     Computing kpt #:    21  of    61
     total cpu time spent up to now is        2.9 secs

     Computing kpt #:    22  of    61
     total cpu time spent up to now is        3.0 secs

     Computing kpt #:    23  of    61
     total cpu time spent up to now is        3.0 secs

     Computing kpt #:    24  of    61
     total cpu time spent up to now is        3.1 secs

     Computing kpt #:    25  of    61
     total cpu time spent up to now is        3.2 secs

     Computing kpt #:    26  of    61
     total cpu time spent up to now is        3.2 secs

     Computing kpt #:    27  of    61
     total cpu time spent up to now is        3.3 secs

     Computing kpt #:    28  of    61
     total cpu time spent up to now is        3.4 secs

     Computing kpt #:    29  of    61
     total cpu time spent up to now is        3.4 secs

     Computing kpt #:    30  of    61
     total cpu time spent up to now is        3.5 secs

     Computing kpt #:    31  of    61
     total cpu time spent up to now is        3.5 secs

     Computing kpt #:    32  of    61
     total cpu time spent up to now is        3.6 secs

     Computing kpt #:    33  of    61
     total cpu time spent up to now is        3.6 secs

     Computing kpt #:    34  of    61
     total cpu time spent up to now is        3.7 secs

     Computing kpt #:    35  of    61
     total cpu time spent up to now is        3.7 secs

     Computing kpt #:    36  of    61
     total cpu time spent up to now is        3.8 secs

     Computing kpt #:    37  of    61
     total cpu time spent up to now is        3.9 secs

     Computing kpt #:    38  of    61
     total cpu time spent up to now is        3.9 secs

     Computing kpt #:    39  of    61
     total cpu time spent up to now is        4.0 secs

     Computing kpt #:    40  of    61
     total cpu time spent up to now is        4.1 secs

     Computing kpt #:    41  of    61
     total cpu time spent up to now is        4.1 secs

     Computing kpt #:    42  of    61
     total cpu time spent up to now is        4.2 secs

     Computing kpt #:    43  of    61
     total cpu time spent up to now is        4.2 secs

     Computing kpt #:    44  of    61
     total cpu time spent up to now is        4.3 secs

     Computing kpt #:    45  of    61
     total cpu time spent up to now is        4.4 secs

     Computing kpt #:    46  of    61
     total cpu time spent up to now is        4.4 secs

     Computing kpt #:    47  of    61
     total cpu time spent up to now is        4.5 secs

     Computing kpt #:    48  of    61
     total cpu time spent up to now is        4.6 secs

     Computing kpt #:    49  of    61
     total cpu time spent up to now is        4.6 secs

     Computing kpt #:    50  of    61
     total cpu time spent up to now is        4.7 secs

     Computing kpt #:    51  of    61
     total cpu time spent up to now is        4.8 secs

     Computing kpt #:    52  of    61
     c_bands:  1 eigenvalues not converged
     total cpu time spent up to now is        4.9 secs

     Computing kpt #:    53  of    61
     total cpu time spent up to now is        5.0 secs

     Computing kpt #:    54  of    61
     total cpu time spent up to now is        5.0 secs

     Computing kpt #:    55  of    61
     total cpu time spent up to now is        5.1 secs

     Computing kpt #:    56  of    61
     total cpu time spent up to now is        5.2 secs

     Computing kpt #:    57  of    61
     total cpu time spent up to now is        5.2 secs

     Computing kpt #:    58  of    61
     total cpu time spent up to now is        5.3 secs

     Computing kpt #:    59  of    61
     total cpu time spent up to now is        5.3 secs

     Computing kpt #:    60  of    61
     total cpu time spent up to now is        5.4 secs

     Computing kpt #:    61  of    61
     total cpu time spent up to now is        5.4 secs

     ethr =  1.25E-10,  avg # of iterations = 44.7

     total cpu time spent up to now is        5.4 secs

     End of band structure calculation

          k = 0.5000 0.2887 0.0000 (  4104 PWs)   bands (ev):

   -15.9585 -14.9511  -8.0965  -4.0129   0.0672   5.8819   9.4877   9.6313

          k = 0.4750 0.2742 0.0000 (  4094 PWs)   bands (ev):

   -16.1931 -14.6943  -8.0816  -4.1092   0.1870   5.8891   8.7952   9.7110

          k = 0.4500 0.2598 0.0000 (  4088 PWs)   bands (ev):

   -16.6282 -14.1928  -8.0372  -4.3687   0.5165   5.9106   8.0686   8.9867

          k = 0.4250 0.2454 0.0000 (  4092 PWs)   bands (ev):

   -17.0902 -13.6209  -7.9634  -4.7318   0.9949   5.9447   7.3774   8.2928

          k = 0.4000 0.2309 0.0000 (  4092 PWs)   bands (ev):

   -17.5435 -13.0151  -7.8610  -5.1475   1.5695   5.9863   6.7286   7.6339

          k = 0.3750 0.2165 0.0000 (  4094 PWs)   bands (ev):

   -17.9780 -12.3867  -7.7306  -5.5831   2.2048   5.9598   6.1973   7.0122

          k = 0.3500 0.2021 0.0000 (  4084 PWs)   bands (ev):

   -18.3898 -11.7417  -7.5734  -6.0189   2.8774   5.4847   6.1610   6.4294

          k = 0.3250 0.1876 0.0000 (  4086 PWs)   bands (ev):

   -18.7766 -11.0844  -7.3909  -6.4431   3.5697   4.9515   5.8878   6.1715

          k = 0.3000 0.1732 0.0000 (  4082 PWs)   bands (ev):

   -19.1374 -10.4193  -7.1850  -6.8483   4.2614   4.4508   5.3959   5.7373

          k = 0.2750 0.1588 0.0000 (  4076 PWs)   bands (ev):

   -19.4713  -9.7509  -7.2297  -6.9581   3.9880   4.7611   5.1341   5.2700

          k = 0.2500 0.1443 0.0000 (  4058 PWs)   bands (ev):

   -19.7775  -9.0846  -7.5840  -6.7131   3.5644   4.4454   4.8401   5.7128

          k = 0.2250 0.1299 0.0000 (  4092 PWs)   bands (ev):

   -20.0558  -8.4269  -7.9089  -6.4540   3.1805   4.0700   4.4503   6.2862

          k = 0.2000 0.1155 0.0000 (  4090 PWs)   bands (ev):

   -20.3055  -8.2026  -7.7852  -6.1856   2.8366   3.7274   4.1012   6.0784

          k = 0.1750 0.1010 0.0000 (  4082 PWs)   bands (ev):

   -20.5266  -8.4640  -7.1688  -5.9137   2.5329   3.4232   3.7930   5.7836

          k = 0.1500 0.0866 0.0000 (  4082 PWs)   bands (ev):

   -20.7186  -8.6920  -6.5887  -5.6458   2.2696   3.1588   3.5258   5.5234

          k = 0.1250 0.0722 0.0000 (  4074 PWs)   bands (ev):

   -20.8814  -8.8860  -6.0575  -5.3905   2.0467   2.9347   3.2997   5.3020

          k = 0.1000 0.0577 0.0000 (  4088 PWs)   bands (ev):

   -21.0148  -9.0454  -5.5902  -5.1583   1.8643   2.7511   3.1147   5.1204

          k = 0.0750 0.0433 0.0000 (  4072 PWs)   bands (ev):

   -21.1187  -9.1698  -5.2027  -4.9602   1.7224   2.6082   2.9709   4.9789

          k = 0.0500 0.0289 0.0000 (  4070 PWs)   bands (ev):

   -21.1930  -9.2588  -4.9115  -4.8074   1.6211   2.5061   2.8681   4.8778

          k = 0.0250 0.0144 0.0000 (  4081 PWs)   bands (ev):

   -21.2376  -9.3123  -4.7342  -4.7068   1.5603   2.4448   2.8065   4.8170

          k = 0.0000 0.0000 0.0000 (  4101 PWs)   bands (ev):

   -21.2525  -9.3302  -4.6861  -4.6602   1.5400   2.4244   2.7860   4.7968

          k = 0.0167 0.0289 0.0000 (  4073 PWs)   bands (ev):

   -21.2327  -9.3064  -4.7638  -4.7085   1.5670   2.4516   2.8133   4.8238

          k = 0.0333 0.0577 0.0000 (  4075 PWs)   bands (ev):

   -21.1732  -9.2350  -4.9986  -4.8409   1.6481   2.5333   2.8955   4.9047

          k = 0.0500 0.0866 0.0000 (  4073 PWs)   bands (ev):

   -21.0742  -9.1164  -5.3654  -5.0544   1.7832   2.6695   3.0326   5.0396

          k = 0.0667 0.1155 0.0000 (  4085 PWs)   bands (ev):

   -20.9358  -8.9508  -5.8331  -5.3426   1.9725   2.8599   3.2244   5.2281

          k = 0.0833 0.1443 0.0000 (  4097 PWs)   bands (ev):

   -20.7581  -8.7387  -6.3719  -5.6967   2.2157   3.1046   3.4711   5.4702

          k = 0.1000 0.1732 0.0000 (  4081 PWs)   bands (ev):

   -20.5415  -8.4810  -6.9567  -6.1063   2.5131   3.4033   3.7727   5.7654

          k = 0.1167 0.2021 0.0000 (  4081 PWs)   bands (ev):

   -20.2861  -8.1785  -7.5677  -6.5605   2.8643   3.7556   4.1292   6.1131

          k = 0.1333 0.2309 0.0000 (  4077 PWs)   bands (ev):

   -19.9926  -8.1899  -7.8325  -7.0486   3.2694   4.1613   4.5405   6.3198

          k = 0.1500 0.2598 0.0000 (  4086 PWs)   bands (ev):

   -19.6613  -8.8121  -7.5602  -7.4446   3.7280   4.6195   5.0065   5.5776

          k = 0.1667 0.2887 0.0000 (  4066 PWs)   bands (ev):

   -19.2930  -9.4260  -8.0858  -7.0166   4.2400   4.8247   5.1294   5.5273

          k = 0.1833 0.3175 0.0000 (  4078 PWs)   bands (ev):

   -18.8885 -10.0254  -8.6171  -6.5512   4.0718   4.8047   5.6891   6.1026

          k = 0.2000 0.3464 0.0000 (  4072 PWs)   bands (ev):

   -18.4490 -10.6057  -9.1462  -6.0515   3.3284   5.4216   6.2957   6.7322

          k = 0.2167 0.3753 0.0000 (  4066 PWs)   bands (ev):

   -17.9759 -11.1633  -9.6663  -5.5216   2.6017   6.0897   6.9432   7.4159

          k = 0.2333 0.4041 0.0000 (  4082 PWs)   bands (ev):

   -17.4715 -11.6957 -10.1712  -4.9667   1.8977   6.8075   7.6184   8.1531

          k = 0.2500 0.4330 0.0000 (  4080 PWs)   bands (ev):

   -16.9388 -12.2007 -10.6545  -4.3934   1.2216   7.5724   8.2867   8.9429

          k = 0.2667 0.4619 0.0000 (  4060 PWs)   bands (ev):

   -16.3825 -12.6769 -11.1092  -3.8102   0.5772   8.3795   8.8498   9.7836

          k = 0.2833 0.4907 0.0000 (  4050 PWs)   bands (ev):

   -15.8106 -13.1231 -11.5261  -3.2275  -0.0323   9.1273   9.2190  10.6700

          k = 0.3000 0.5196 0.0000 (  4044 PWs)   bands (ev):

   -15.2386 -13.5384 -11.8897  -2.6582  -0.6040   9.1279  10.0670  11.5109

          k = 0.3167 0.5485 0.0000 (  4060 PWs)   bands (ev):

   -14.6997 -13.9220 -12.1677  -2.1172  -1.1359   9.0499  10.8531  11.4738

          k = 0.3333 0.5773 0.0000 (  4080 PWs)   bands (ev):

   -14.2755 -14.2670 -12.2871  -1.6291  -1.6175   9.0107  11.3313  11.3398

          k = 0.3417 0.5629 0.0000 (  4068 PWs)   bands (ev):

   -14.4369 -14.1320 -12.2509  -1.8553  -1.3935   9.0221  11.2299  11.3564

          k = 0.3500 0.5485 0.0000 (  4064 PWs)   bands (ev):

   -14.5922 -14.0609 -12.1379  -2.0733  -1.1832   9.0580  11.1102  11.2675

          k = 0.3583 0.5340 0.0000 (  4062 PWs)   bands (ev):

   -14.7393 -14.0496 -11.9548  -2.2803  -0.9907   9.1195  10.9794  11.1185

          k = 0.3667 0.5196 0.0000 (  4054 PWs)   bands (ev):

   -14.8781 -14.0823 -11.7186  -2.4760  -0.8170   9.2059  10.8421  10.9116

          k = 0.3750 0.5052 0.0000 (  4054 PWs)   bands (ev):

   -15.0085 -14.1423 -11.4470  -2.6604  -0.6623   9.3151  10.6117  10.7029

          k = 0.3833 0.4907 0.0000 (  4054 PWs)   bands (ev):

   -15.1307 -14.2174 -11.1536  -2.8334  -0.5267   9.4434  10.2226  10.5640

          k = 0.3917 0.4763 0.0000 (  4066 PWs)   bands (ev):

   -15.2445 -14.2994 -10.8482  -2.9948  -0.4095   9.5853   9.7879  10.4286

          k = 0.4000 0.4619 0.0000 (  4068 PWs)   bands (ev):

   -15.3500 -14.3833 -10.5378  -3.1445  -0.3097   9.3368   9.7337  10.2986

          k = 0.4083 0.4474 0.0000 (  4072 PWs)   bands (ev):

   -15.4471 -14.4657 -10.2277  -3.2826  -0.2261   8.8848   9.8799  10.1757

          k = 0.4167 0.4330 0.0000 (  4100 PWs)   bands (ev):

   -15.5357 -14.5445  -9.9228  -3.4088  -0.1570   8.4420  10.0149  10.0608

          k = 0.4250 0.4186 0.0000 (  4084 PWs)   bands (ev):

   -15.6160 -14.6182  -9.6273  -3.5232  -0.1008   8.0160   9.9551  10.1314

          k = 0.4333 0.4041 0.0000 (  4090 PWs)   bands (ev):

   -15.6878 -14.6858  -9.3454  -3.6257  -0.0558   7.6134   9.8590  10.0289

          k = 0.4417 0.3897 0.0000 (  4072 PWs)   bands (ev):

   -15.7512 -14.7465  -9.0814  -3.7163  -0.0203   7.2401   9.7733   9.9365

          k = 0.4500 0.3753 0.0000 (  4088 PWs)   bands (ev):

   -15.8062 -14.8000  -8.8398  -3.7949   0.0072   6.9018   9.6983   9.8560

          k = 0.4583 0.3608 0.0000 (  4088 PWs)   bands (ev):

   -15.8527 -14.8457  -8.6251  -3.8614   0.0281   6.6039   9.6344   9.7876

          k = 0.4667 0.3464 0.0000 (  4080 PWs)   bands (ev):

   -15.8908 -14.8834  -8.4417  -3.9159   0.0435   6.3515   9.5818   9.7315

          k = 0.4750 0.3320 0.0000 (  4080 PWs)   bands (ev):

   -15.9204 -14.9129  -8.2939  -3.9583   0.0544   6.1495   9.5407   9.6877

          k = 0.4833 0.3175 0.0000 (  4102 PWs)   bands (ev):

   -15.9416 -14.9341  -8.1853  -3.9886   0.0617   6.0020   9.5113   9.6564

          k = 0.4917 0.3031 0.0000 (  4108 PWs)   bands (ev):

   -15.9543 -14.9469  -8.1189  -4.0068   0.0659   5.9121   9.4936   9.6376

          k = 0.5000 0.2887 0.0000 (  4104 PWs)   bands (ev):

   -15.9585 -14.9511  -8.0965  -4.0129   0.0672   5.8819   9.4877   9.6313

     Writing all to output data dir ./graphene.save/

     init_run     :      1.03s CPU      1.07s WALL (       1 calls)
     electrons    :      3.71s CPU      3.95s WALL (       1 calls)

     Called by init_run:
     wfcinit      :      0.00s CPU      0.01s WALL (       1 calls)
     wfcinit:atom :      0.00s CPU      0.00s WALL (      61 calls)
     wfcinit:wfcr :      0.11s CPU      0.13s WALL (      61 calls)
     potinit      :      0.37s CPU      0.39s WALL (       1 calls)
     hinit0       :      0.58s CPU      0.59s WALL (       1 calls)

     Called by electrons:
     c_bands      :      3.71s CPU      3.95s WALL (       1 calls)
     v_of_rho     :      0.02s CPU      0.02s WALL (       1 calls)
     v_h          :      0.00s CPU      0.00s WALL (       1 calls)
     v_xc         :      0.02s CPU      0.02s WALL (       1 calls)
     newd         :      0.01s CPU      0.01s WALL (       1 calls)
     PAW_pot      :      0.01s CPU      0.01s WALL (       1 calls)

     Called by c_bands:
     init_us_2    :      0.00s CPU      0.00s WALL (      61 calls)
     init_us_2:cp :      0.00s CPU      0.00s WALL (      61 calls)
     cegterg      :      3.57s CPU      3.72s WALL (     165 calls)

     Called by sum_band:

     Called by *egterg:
     cdiaghg      :      0.24s CPU      0.25s WALL (    2789 calls)
     cegterg:over :      0.17s CPU      0.18s WALL (    2728 calls)
     cegterg:upda :      0.04s CPU      0.04s WALL (    2728 calls)
     cegterg:last :      0.07s CPU      0.07s WALL (    1489 calls)
     h_psi        :      3.03s CPU      3.17s WALL (    2954 calls)
     s_psi        :      0.03s CPU      0.03s WALL (    2954 calls)
     g_psi        :      0.01s CPU      0.01s WALL (    2728 calls)

     Called by h_psi:
     h_psi:calbec :      0.15s CPU      0.16s WALL (    2954 calls)
     vloc_psi     :      2.83s CPU      2.96s WALL (    2954 calls)
     add_vuspsi   :      0.03s CPU      0.03s WALL (    2954 calls)

     General routines
     calbec       :      0.15s CPU      0.15s WALL (    2954 calls)
     fft          :      0.55s CPU      0.56s WALL (      13 calls)
     ffts         :      0.33s CPU      0.34s WALL (       1 calls)
     fftw         :      2.68s CPU      2.80s WALL (   25284 calls)
     interpolate  :      0.34s CPU      0.34s WALL (       1 calls)
     davcio       :      0.01s CPU      0.01s WALL (     122 calls)

     Parallel routines

     PAW routines
     PAW_pot      :      0.01s CPU      0.01s WALL (       1 calls)

     PWSCF        :      5.23s CPU      5.97s WALL


   This run was terminated on:  18:13:18  27Jun2025            

=------------------------------------------------------------------------------=
   JOB DONE.
=------------------------------------------------------------------------------=
