
     Program PWSCF v.7.1 starts on 27Jun2025 at 15:50:56 

     This program is part of the open-source Quantum ESPRESSO suite
     for quantum simulation of materials; please cite
         "P. Giannozzi et al., J. Phys.:Condens. Matter 21 395502 (2009);
         "P. Giannozzi et al., J. Phys.:Condens. Matter 29 465901 (2017);
         "P. Giannozzi et al., J. Chem. Phys. 152 154105 (2020);
          URL http://www.quantum-espresso.org", 
     in publications or presentations arising from this work. More details at
     http://www.quantum-espresso.org/quote

     Parallel version (MPI & OpenMP), running on      12 processor cores
     Number of MPI processes:                12
     Threads/MPI process:                     1

     MPI processes distributed on     1 nodes
     466140 MiB available memory on the printing compute node when the environment starts

     Waiting for input...
     Reading input from standard input

     Current dimensions of program PWSCF are:
     Max number of different atomic species (ntypx) = 10
     Max number of k-points (npk) =  40000
     Max angular momentum in pseudopotentials (lmaxx) =  4

     Atomic positions and unit cell read from directory:
     ./pwscf.save/
     Atomic positions from file used, from input discarded

     file Te.rel-pbe-n-kjpaw_psl.1.0.0.UPF: wavefunction(s)  5S 5P 5P renormalized
     file W.rel-pbe-spn-kjpaw_psl.1.0.0.UPF: wavefunction(s)  6S 5P 5D renormalized
     Message from routine setup:
     using ibrav=0 with symmetry is DISCOURAGED, use correct ibrav instead

     R & G space division:  proc/nbgrp/npool/nimage =      12
     Subspace diagonalization in iterative solution of the eigenvalue problem:
     a serial algorithm will be used


     Parallelization info
     --------------------
     sticks:   dense  smooth     PW     G-vecs:    dense   smooth      PW
     Min         311     125     35                92003    23287    3555
     Max         312     126     36                92026    23298    3580
     Sum        3735    1507    427              1104117   279489   42815

     Using Slab Decomposition



     bravais-lattice index     =            0
     lattice parameter (alat)  =       6.6140  a.u.
     unit-cell volume          =    4449.8518 (a.u.)^3
     number of atoms/cell      =            6
     number of atomic types    =            2
     number of electrons       =        52.00
     number of Kohn-Sham states=           62
     kinetic-energy cutoff     =      60.0000  Ry
     charge density cutoff     =     600.0000  Ry
     Exchange-correlation= SLA  PW   PBX  PBC
                           (   1   4   3   4   0   0   0)
     Non magnetic calculation with spin-orbit


     celldm(1)=   6.614041  celldm(2)=   0.000000  celldm(3)=   0.000000
     celldm(4)=   0.000000  celldm(5)=   0.000000  celldm(6)=   0.000000

     crystal axes: (cart. coord. in units of alat)
               a(1) = (   1.000000   0.000000   0.000000 )  
               a(2) = (   0.000000   1.794286   0.000000 )  
               a(3) = (   0.000000   0.000000   8.571429 )  

     reciprocal axes: (cart. coord. in units 2 pi/alat)
               b(1) = (  1.000000  0.000000  0.000000 )  
               b(2) = (  0.000000  0.557325  0.000000 )  
               b(3) = (  0.000000  0.000000  0.116667 )  


     PseudoPot. # 1 for Te read from file:
     ./Te.rel-pbe-n-kjpaw_psl.1.0.0.UPF
     MD5 check sum: 6ffde90f16471d786941b44326de665d
     Pseudo is Projector augmented-wave + core cor, Zval =  6.0
     Generated using &quot;atomic&quot; code by A. Dal Corso  v.6.3
     Shape of augmentation charge: PSQ
     Using radial grid of 1245 points, 10 beta functions with: 
                l(1) =   0
                l(2) =   0
                l(3) =   1
                l(4) =   1
                l(5) =   1
                l(6) =   1
                l(7) =   2
                l(8) =   2
                l(9) =   2
               l(10) =   2
     Q(r) pseudized with 0 coefficients 


     PseudoPot. # 2 for W  read from file:
     ./W.rel-pbe-spn-kjpaw_psl.1.0.0.UPF
     MD5 check sum: 51235a9978e123729cef7a6d558439d4
     Pseudo is Projector augmented-wave + core cor, Zval = 14.0
     Generated using &quot;atomic&quot; code by A. Dal Corso  v.6.2.2
     Shape of augmentation charge: PSQ
     Using radial grid of 1273 points, 10 beta functions with: 
                l(1) =   0
                l(2) =   0
                l(3) =   1
                l(4) =   1
                l(5) =   1
                l(6) =   1
                l(7) =   2
                l(8) =   2
                l(9) =   2
               l(10) =   2
     Q(r) pseudized with 0 coefficients 


     atomic species   valence    mass     pseudopotential
        Te             6.00   127.60000     Te( 1.00)
        W             14.00   183.84000     W ( 1.00)

      2 Sym. Ops. (no inversion) found


                                    s                        frac. trans.

      isym =  1     identity                                     

 cryst.   s( 1) = (     1          0          0      )
                  (     0          1          0      )
                  (     0          0          1      )

 cart.    s( 1) = (  1.0000000  0.0000000  0.0000000 )
                  (  0.0000000  1.0000000  0.0000000 )
                  (  0.0000000  0.0000000  1.0000000 )


      isym =  2     inv. 180 deg rotation - cart. axis [1,0,0]   

 cryst.   s( 2) = (    -1          0          0      )
                  (     0          1          0      )
                  (     0          0          1      )

 cart.    s( 2) = ( -1.0000000  0.0000000  0.0000000 )
                  (  0.0000000  1.0000000  0.0000000 )
                  (  0.0000000  0.0000000  1.0000000 )


   Cartesian axes

     site n.     atom                  positions (alat units)
         1           W   tau(   1) = (   0.0000000   0.1813856   2.0105702  )
         2           W   tau(   2) = (   0.5000000   0.8183997   1.9501115  )
         3           Te  tau(   3) = (   0.5000000   1.5275592   1.5575238  )
         4           Te  tau(   4) = (   0.0000000   1.2665576   2.4035826  )
         5           Te  tau(   5) = (   0.0000000   0.6419287   1.3787720  )
         6           Te  tau(   6) = (   0.5000000   0.3574240   2.5817559  )

   Crystallographic axes

     site n.     atom                  positions (cryst. coord.)
         1           W   tau(   1) = (  0.0000000  0.1010907  0.2345665  )
         2           W   tau(   2) = (  0.5000000  0.4561145  0.2275130  )
         3           Te  tau(   3) = (  0.5000000  0.8513467  0.1817111  )
         4           Te  tau(   4) = (  0.0000000  0.7058840  0.2804180  )
         5           Te  tau(   5) = (  0.0000000  0.3577628  0.1608567  )
         6           Te  tau(   6) = (  0.5000000  0.1992013  0.3012049  )

     number of k points=    81  Gaussian smearing, width (Ry)=  0.0100
                       cart. coord. in units 2pi/alat
        k(    1) = (   0.0000000   0.0000000   0.0000000), wk =   0.0123457
        k(    2) = (   0.0250000   0.0000000   0.0000000), wk =   0.0123457
        k(    3) = (   0.0500000   0.0000000   0.0000000), wk =   0.0123457
        k(    4) = (   0.0750000   0.0000000   0.0000000), wk =   0.0123457
        k(    5) = (   0.1000000   0.0000000   0.0000000), wk =   0.0123457
        k(    6) = (   0.1250000   0.0000000   0.0000000), wk =   0.0123457
        k(    7) = (   0.1500000   0.0000000   0.0000000), wk =   0.0123457
        k(    8) = (   0.1750000   0.0000000   0.0000000), wk =   0.0123457
        k(    9) = (   0.2000000   0.0000000   0.0000000), wk =   0.0123457
        k(   10) = (   0.2250000   0.0000000   0.0000000), wk =   0.0123457
        k(   11) = (   0.2500000   0.0000000   0.0000000), wk =   0.0123457
        k(   12) = (   0.2750000   0.0000000   0.0000000), wk =   0.0123457
        k(   13) = (   0.3000000   0.0000000   0.0000000), wk =   0.0123457
        k(   14) = (   0.3250000   0.0000000   0.0000000), wk =   0.0123457
        k(   15) = (   0.3500000   0.0000000   0.0000000), wk =   0.0123457
        k(   16) = (   0.3750000   0.0000000   0.0000000), wk =   0.0123457
        k(   17) = (   0.4000000   0.0000000   0.0000000), wk =   0.0123457
        k(   18) = (   0.4250000   0.0000000   0.0000000), wk =   0.0123457
        k(   19) = (   0.4500000   0.0000000   0.0000000), wk =   0.0123457
        k(   20) = (   0.4750000   0.0000000   0.0000000), wk =   0.0123457
        k(   21) = (   0.5000000   0.0000000   0.0000000), wk =   0.0123457
        k(   22) = (   0.5000000   0.0139331   0.0000000), wk =   0.0123457
        k(   23) = (   0.5000000   0.0278662   0.0000000), wk =   0.0123457
        k(   24) = (   0.5000000   0.0417994   0.0000000), wk =   0.0123457
        k(   25) = (   0.5000000   0.0557325   0.0000000), wk =   0.0123457
        k(   26) = (   0.5000000   0.0696656   0.0000000), wk =   0.0123457
        k(   27) = (   0.5000000   0.0835987   0.0000000), wk =   0.0123457
        k(   28) = (   0.5000000   0.0975318   0.0000000), wk =   0.0123457
        k(   29) = (   0.5000000   0.1114650   0.0000000), wk =   0.0123457
        k(   30) = (   0.5000000   0.1253981   0.0000000), wk =   0.0123457
        k(   31) = (   0.5000000   0.1393312   0.0000000), wk =   0.0123457
        k(   32) = (   0.5000000   0.1532643   0.0000000), wk =   0.0123457
        k(   33) = (   0.5000000   0.1671975   0.0000000), wk =   0.0123457
        k(   34) = (   0.5000000   0.1811306   0.0000000), wk =   0.0123457
        k(   35) = (   0.5000000   0.1950637   0.0000000), wk =   0.0123457
        k(   36) = (   0.5000000   0.2089968   0.0000000), wk =   0.0123457
        k(   37) = (   0.5000000   0.2229299   0.0000000), wk =   0.0123457
        k(   38) = (   0.5000000   0.2368631   0.0000000), wk =   0.0123457
        k(   39) = (   0.5000000   0.2507962   0.0000000), wk =   0.0123457
        k(   40) = (   0.5000000   0.2647293   0.0000000), wk =   0.0123457
        k(   41) = (   0.5000000   0.2786624   0.0000000), wk =   0.0123457
        k(   42) = (   0.4750000   0.2786624   0.0000000), wk =   0.0123457
        k(   43) = (   0.4500000   0.2786624   0.0000000), wk =   0.0123457
        k(   44) = (   0.4250000   0.2786624   0.0000000), wk =   0.0123457
        k(   45) = (   0.4000000   0.2786624   0.0000000), wk =   0.0123457
        k(   46) = (   0.3750000   0.2786624   0.0000000), wk =   0.0123457
        k(   47) = (   0.3500000   0.2786624   0.0000000), wk =   0.0123457
        k(   48) = (   0.3250000   0.2786624   0.0000000), wk =   0.0123457
        k(   49) = (   0.3000000   0.2786624   0.0000000), wk =   0.0123457
        k(   50) = (   0.2750000   0.2786624   0.0000000), wk =   0.0123457
        k(   51) = (   0.2500000   0.2786624   0.0000000), wk =   0.0123457
        k(   52) = (   0.2250000   0.2786624   0.0000000), wk =   0.0123457
        k(   53) = (   0.2000000   0.2786624   0.0000000), wk =   0.0123457
        k(   54) = (   0.1750000   0.2786624   0.0000000), wk =   0.0123457
        k(   55) = (   0.1500000   0.2786624   0.0000000), wk =   0.0123457
        k(   56) = (   0.1250000   0.2786624   0.0000000), wk =   0.0123457
        k(   57) = (   0.1000000   0.2786624   0.0000000), wk =   0.0123457
        k(   58) = (   0.0750000   0.2786624   0.0000000), wk =   0.0123457
        k(   59) = (   0.0500000   0.2786624   0.0000000), wk =   0.0123457
        k(   60) = (   0.0250000   0.2786624   0.0000000), wk =   0.0123457
        k(   61) = (   0.0000000   0.2786624   0.0000000), wk =   0.0123457
        k(   62) = (   0.0000000   0.2647293   0.0000000), wk =   0.0123457
        k(   63) = (   0.0000000   0.2507962   0.0000000), wk =   0.0123457
        k(   64) = (   0.0000000   0.2368631   0.0000000), wk =   0.0123457
        k(   65) = (   0.0000000   0.2229299   0.0000000), wk =   0.0123457
        k(   66) = (   0.0000000   0.2089968   0.0000000), wk =   0.0123457
        k(   67) = (   0.0000000   0.1950637   0.0000000), wk =   0.0123457
        k(   68) = (   0.0000000   0.1811306   0.0000000), wk =   0.0123457
        k(   69) = (   0.0000000   0.1671975   0.0000000), wk =   0.0123457
        k(   70) = (   0.0000000   0.1532643   0.0000000), wk =   0.0123457
        k(   71) = (   0.0000000   0.1393312   0.0000000), wk =   0.0123457
        k(   72) = (   0.0000000   0.1253981   0.0000000), wk =   0.0123457
        k(   73) = (   0.0000000   0.1114650   0.0000000), wk =   0.0123457
        k(   74) = (   0.0000000   0.0975318   0.0000000), wk =   0.0123457
        k(   75) = (   0.0000000   0.0835987   0.0000000), wk =   0.0123457
        k(   76) = (   0.0000000   0.0696656   0.0000000), wk =   0.0123457
        k(   77) = (   0.0000000   0.0557325   0.0000000), wk =   0.0123457
        k(   78) = (   0.0000000   0.0417994   0.0000000), wk =   0.0123457
        k(   79) = (   0.0000000   0.0278662   0.0000000), wk =   0.0123457
        k(   80) = (   0.0000000   0.0139331   0.0000000), wk =   0.0123457
        k(   81) = (   0.0000000   0.0000000   0.0000000), wk =   0.0123457

                       cryst. coord.
        k(    1) = (   0.0000000   0.0000000   0.0000000), wk =   0.0123457
        k(    2) = (   0.0250000   0.0000000   0.0000000), wk =   0.0123457
        k(    3) = (   0.0500000   0.0000000   0.0000000), wk =   0.0123457
        k(    4) = (   0.0750000   0.0000000   0.0000000), wk =   0.0123457
        k(    5) = (   0.1000000   0.0000000   0.0000000), wk =   0.0123457
        k(    6) = (   0.1250000   0.0000000   0.0000000), wk =   0.0123457
        k(    7) = (   0.1500000   0.0000000   0.0000000), wk =   0.0123457
        k(    8) = (   0.1750000   0.0000000   0.0000000), wk =   0.0123457
        k(    9) = (   0.2000000   0.0000000   0.0000000), wk =   0.0123457
        k(   10) = (   0.2250000   0.0000000   0.0000000), wk =   0.0123457
        k(   11) = (   0.2500000   0.0000000   0.0000000), wk =   0.0123457
        k(   12) = (   0.2750000   0.0000000   0.0000000), wk =   0.0123457
        k(   13) = (   0.3000000   0.0000000   0.0000000), wk =   0.0123457
        k(   14) = (   0.3250000   0.0000000   0.0000000), wk =   0.0123457
        k(   15) = (   0.3500000   0.0000000   0.0000000), wk =   0.0123457
        k(   16) = (   0.3750000   0.0000000   0.0000000), wk =   0.0123457
        k(   17) = (   0.4000000   0.0000000   0.0000000), wk =   0.0123457
        k(   18) = (   0.4250000   0.0000000   0.0000000), wk =   0.0123457
        k(   19) = (   0.4500000   0.0000000   0.0000000), wk =   0.0123457
        k(   20) = (   0.4750000   0.0000000   0.0000000), wk =   0.0123457
        k(   21) = (   0.5000000   0.0000000   0.0000000), wk =   0.0123457
        k(   22) = (   0.5000000   0.0250000   0.0000000), wk =   0.0123457
        k(   23) = (   0.5000000   0.0500000   0.0000000), wk =   0.0123457
        k(   24) = (   0.5000000   0.0750000   0.0000000), wk =   0.0123457
        k(   25) = (   0.5000000   0.1000000   0.0000000), wk =   0.0123457
        k(   26) = (   0.5000000   0.1250000   0.0000000), wk =   0.0123457
        k(   27) = (   0.5000000   0.1500000   0.0000000), wk =   0.0123457
        k(   28) = (   0.5000000   0.1750000   0.0000000), wk =   0.0123457
        k(   29) = (   0.5000000   0.2000000   0.0000000), wk =   0.0123457
        k(   30) = (   0.5000000   0.2250000   0.0000000), wk =   0.0123457
        k(   31) = (   0.5000000   0.2500000   0.0000000), wk =   0.0123457
        k(   32) = (   0.5000000   0.2750000   0.0000000), wk =   0.0123457
        k(   33) = (   0.5000000   0.3000000   0.0000000), wk =   0.0123457
        k(   34) = (   0.5000000   0.3250000   0.0000000), wk =   0.0123457
        k(   35) = (   0.5000000   0.3500000   0.0000000), wk =   0.0123457
        k(   36) = (   0.5000000   0.3750000   0.0000000), wk =   0.0123457
        k(   37) = (   0.5000000   0.4000000   0.0000000), wk =   0.0123457
        k(   38) = (   0.5000000   0.4250000   0.0000000), wk =   0.0123457
        k(   39) = (   0.5000000   0.4500000   0.0000000), wk =   0.0123457
        k(   40) = (   0.5000000   0.4750000   0.0000000), wk =   0.0123457
        k(   41) = (   0.5000000   0.5000000   0.0000000), wk =   0.0123457
        k(   42) = (   0.4750000   0.5000000   0.0000000), wk =   0.0123457
        k(   43) = (   0.4500000   0.5000000   0.0000000), wk =   0.0123457
        k(   44) = (   0.4250000   0.5000000   0.0000000), wk =   0.0123457
        k(   45) = (   0.4000000   0.5000000   0.0000000), wk =   0.0123457
        k(   46) = (   0.3750000   0.5000000   0.0000000), wk =   0.0123457
        k(   47) = (   0.3500000   0.5000000   0.0000000), wk =   0.0123457
        k(   48) = (   0.3250000   0.5000000   0.0000000), wk =   0.0123457
        k(   49) = (   0.3000000   0.5000000   0.0000000), wk =   0.0123457
        k(   50) = (   0.2750000   0.5000000   0.0000000), wk =   0.0123457
        k(   51) = (   0.2500000   0.5000000   0.0000000), wk =   0.0123457
        k(   52) = (   0.2250000   0.5000000   0.0000000), wk =   0.0123457
        k(   53) = (   0.2000000   0.5000000   0.0000000), wk =   0.0123457
        k(   54) = (   0.1750000   0.5000000   0.0000000), wk =   0.0123457
        k(   55) = (   0.1500000   0.5000000   0.0000000), wk =   0.0123457
        k(   56) = (   0.1250000   0.5000000   0.0000000), wk =   0.0123457
        k(   57) = (   0.1000000   0.5000000   0.0000000), wk =   0.0123457
        k(   58) = (   0.0750000   0.5000000   0.0000000), wk =   0.0123457
        k(   59) = (   0.0500000   0.5000000   0.0000000), wk =   0.0123457
        k(   60) = (   0.0250000   0.5000000   0.0000000), wk =   0.0123457
        k(   61) = (   0.0000000   0.5000000   0.0000000), wk =   0.0123457
        k(   62) = (   0.0000000   0.4750000   0.0000000), wk =   0.0123457
        k(   63) = (   0.0000000   0.4500000   0.0000000), wk =   0.0123457
        k(   64) = (   0.0000000   0.4250000   0.0000000), wk =   0.0123457
        k(   65) = (   0.0000000   0.4000000   0.0000000), wk =   0.0123457
        k(   66) = (   0.0000000   0.3750000   0.0000000), wk =   0.0123457
        k(   67) = (   0.0000000   0.3500000   0.0000000), wk =   0.0123457
        k(   68) = (   0.0000000   0.3250000   0.0000000), wk =   0.0123457
        k(   69) = (   0.0000000   0.3000000   0.0000000), wk =   0.0123457
        k(   70) = (   0.0000000   0.2750000   0.0000000), wk =   0.0123457
        k(   71) = (   0.0000000   0.2500000   0.0000000), wk =   0.0123457
        k(   72) = (   0.0000000   0.2250000   0.0000000), wk =   0.0123457
        k(   73) = (   0.0000000   0.2000000   0.0000000), wk =   0.0123457
        k(   74) = (   0.0000000   0.1750000   0.0000000), wk =   0.0123457
        k(   75) = (   0.0000000   0.1500000   0.0000000), wk =   0.0123457
        k(   76) = (   0.0000000   0.1250000   0.0000000), wk =   0.0123457
        k(   77) = (   0.0000000   0.1000000   0.0000000), wk =   0.0123457
        k(   78) = (   0.0000000   0.0750000   0.0000000), wk =   0.0123457
        k(   79) = (   0.0000000   0.0500000   0.0000000), wk =   0.0123457
        k(   80) = (   0.0000000   0.0250000   0.0000000), wk =   0.0123457
        k(   81) = (   0.0000000   0.0000000   0.0000000), wk =   0.0123457

     Dense  grid:  1104117 G-vectors     FFT dimensions: (  54,  96, 450)

     Smooth grid:   279489 G-vectors     FFT dimensions: (  36,  60, 288)

     Dynamical RAM for                 wfc:       5.51 MB

     Dynamical RAM for     wfc (w. buffer):       5.51 MB

     Dynamical RAM for           str. fact:       2.81 MB

     Dynamical RAM for           local pot:       0.00 MB

     Dynamical RAM for          nlocal pot:       9.06 MB

     Dynamical RAM for                qrad:      10.29 MB

     Dynamical RAM for          rho,v,vnew:      34.89 MB

     Dynamical RAM for           G-vectors:       5.44 MB

     Dynamical RAM for          h,s,v(r/c):       0.70 MB

     Dynamical RAM for          <psi|beta>:       0.39 MB

     Dynamical RAM for                 psi:      11.01 MB

     Dynamical RAM for                hpsi:      11.01 MB

     Dynamical RAM for                spsi:      11.01 MB

     Dynamical RAM for      wfcinit/wfcrot:      11.35 MB

     Dynamical RAM for           addusdens:     862.18 MB

     Estimated static dynamical RAM per process >      84.23 MB

     Estimated max dynamical RAM per process >     946.41 MB

     Estimated total dynamical RAM >      11.09 GB

     The potential is recalculated from file :
     ./pwscf.save/charge-density


     negative rho (up, down):  2.337E-02 0.000E+00
     Starting wfcs are   84 randomized atomic wfcs
     Checking if some PAW data can be deallocated... 
       PAW data deallocated on    4 nodes for type:  1
       PAW data deallocated on    8 nodes for type:  2

     Band Structure Calculation
     Davidson diagonalization with overlap

     Computing kpt #:     1  of    81
     total cpu time spent up to now is       24.3 secs

     Computing kpt #:     2  of    81
     total cpu time spent up to now is       42.4 secs

     Computing kpt #:     3  of    81
     total cpu time spent up to now is       61.1 secs

     Computing kpt #:     4  of    81
     total cpu time spent up to now is       77.5 secs

     Computing kpt #:     5  of    81
     total cpu time spent up to now is       94.8 secs

     Computing kpt #:     6  of    81
     c_bands:  2 eigenvalues not converged
     total cpu time spent up to now is      112.8 secs

     Computing kpt #:     7  of    81
     c_bands:  2 eigenvalues not converged
     total cpu time spent up to now is      134.1 secs

     Computing kpt #:     8  of    81
     c_bands:  2 eigenvalues not converged
     total cpu time spent up to now is      154.6 secs

     Computing kpt #:     9  of    81
     c_bands:  2 eigenvalues not converged
     total cpu time spent up to now is      175.1 secs

     Computing kpt #:    10  of    81
     total cpu time spent up to now is      196.3 secs

     Computing kpt #:    11  of    81
     total cpu time spent up to now is      217.8 secs

     Computing kpt #:    12  of    81
     c_bands:  2 eigenvalues not converged
     total cpu time spent up to now is      239.7 secs

     Computing kpt #:    13  of    81
     c_bands:  2 eigenvalues not converged
     total cpu time spent up to now is      261.1 secs

     Computing kpt #:    14  of    81
     c_bands:  2 eigenvalues not converged
     total cpu time spent up to now is      280.9 secs

     Computing kpt #:    15  of    81
     total cpu time spent up to now is      300.2 secs

     Computing kpt #:    16  of    81
     total cpu time spent up to now is      318.4 secs

     Computing kpt #:    17  of    81
     total cpu time spent up to now is      335.7 secs

     Computing kpt #:    18  of    81
     total cpu time spent up to now is      353.8 secs

     Computing kpt #:    19  of    81
     total cpu time spent up to now is      371.8 secs

     Computing kpt #:    20  of    81
     total cpu time spent up to now is      389.7 secs

     Computing kpt #:    21  of    81
     c_bands:  2 eigenvalues not converged
     total cpu time spent up to now is      406.6 secs

     Computing kpt #:    22  of    81
     c_bands:  2 eigenvalues not converged
     total cpu time spent up to now is      423.7 secs

     Computing kpt #:    23  of    81
     c_bands:  2 eigenvalues not converged
     total cpu time spent up to now is      441.2 secs

     Computing kpt #:    24  of    81
     c_bands:  2 eigenvalues not converged
     total cpu time spent up to now is      458.9 secs

     Computing kpt #:    25  of    81
     total cpu time spent up to now is      475.8 secs

     Computing kpt #:    26  of    81
     total cpu time spent up to now is      491.7 secs

     Computing kpt #:    27  of    81
     total cpu time spent up to now is      508.5 secs

     Computing kpt #:    28  of    81
     total cpu time spent up to now is      526.3 secs

     Computing kpt #:    29  of    81
     total cpu time spent up to now is      543.7 secs

     Computing kpt #:    30  of    81
     total cpu time spent up to now is      560.1 secs

     Computing kpt #:    31  of    81
     total cpu time spent up to now is      576.7 secs

     Computing kpt #:    32  of    81
     total cpu time spent up to now is      595.2 secs

     Computing kpt #:    33  of    81
     total cpu time spent up to now is      614.6 secs

     Computing kpt #:    34  of    81
     total cpu time spent up to now is      634.6 secs

     Computing kpt #:    35  of    81
     c_bands:  2 eigenvalues not converged
     total cpu time spent up to now is      656.1 secs

     Computing kpt #:    36  of    81
     total cpu time spent up to now is      676.4 secs

     Computing kpt #:    37  of    81
     c_bands:  2 eigenvalues not converged
     total cpu time spent up to now is      697.4 secs

     Computing kpt #:    38  of    81
     c_bands:  2 eigenvalues not converged
     total cpu time spent up to now is      718.8 secs

     Computing kpt #:    39  of    81
     c_bands:  2 eigenvalues not converged
     total cpu time spent up to now is      740.4 secs

     Computing kpt #:    40  of    81
     c_bands:  2 eigenvalues not converged
     total cpu time spent up to now is      761.8 secs

     Computing kpt #:    41  of    81
     c_bands:  2 eigenvalues not converged
     total cpu time spent up to now is      783.2 secs

     Computing kpt #:    42  of    81
     total cpu time spent up to now is      803.8 secs

     Computing kpt #:    43  of    81
     total cpu time spent up to now is      822.4 secs

     Computing kpt #:    44  of    81
     total cpu time spent up to now is      842.6 secs

     Computing kpt #:    45  of    81
     total cpu time spent up to now is      862.4 secs

     Computing kpt #:    46  of    81
     total cpu time spent up to now is      882.5 secs

     Computing kpt #:    47  of    81
     total cpu time spent up to now is      902.0 secs

     Computing kpt #:    48  of    81
     total cpu time spent up to now is      921.7 secs

     Computing kpt #:    49  of    81
     total cpu time spent up to now is      941.8 secs

     Computing kpt #:    50  of    81
     total cpu time spent up to now is      960.9 secs

     Computing kpt #:    51  of    81
     total cpu time spent up to now is      977.6 secs

     Computing kpt #:    52  of    81
     total cpu time spent up to now is      994.6 secs

     Computing kpt #:    53  of    81
     total cpu time spent up to now is     1011.8 secs

     Computing kpt #:    54  of    81
     total cpu time spent up to now is     1029.9 secs

     Computing kpt #:    55  of    81
     total cpu time spent up to now is     1047.6 secs

     Computing kpt #:    56  of    81
     total cpu time spent up to now is     1063.0 secs

     Computing kpt #:    57  of    81
     total cpu time spent up to now is     1077.8 secs

     Computing kpt #:    58  of    81
     total cpu time spent up to now is     1091.9 secs

     Computing kpt #:    59  of    81
     c_bands:  2 eigenvalues not converged
     total cpu time spent up to now is     1106.6 secs

     Computing kpt #:    60  of    81
     c_bands:  2 eigenvalues not converged
     total cpu time spent up to now is     1123.9 secs

     Computing kpt #:    61  of    81
     c_bands:  1 eigenvalues not converged
     total cpu time spent up to now is     1141.5 secs

     Computing kpt #:    62  of    81
     c_bands:  2 eigenvalues not converged
     total cpu time spent up to now is     1159.3 secs

     Computing kpt #:    63  of    81
     c_bands:  2 eigenvalues not converged
     total cpu time spent up to now is     1175.7 secs

     Computing kpt #:    64  of    81
     c_bands:  2 eigenvalues not converged
     total cpu time spent up to now is     1192.2 secs

     Computing kpt #:    65  of    81
     c_bands:  2 eigenvalues not converged
     total cpu time spent up to now is     1207.4 secs

     Computing kpt #:    66  of    81
     c_bands:  2 eigenvalues not converged
     total cpu time spent up to now is     1223.0 secs

     Computing kpt #:    67  of    81
     total cpu time spent up to now is     1238.6 secs

     Computing kpt #:    68  of    81
     total cpu time spent up to now is     1255.8 secs

     Computing kpt #:    69  of    81
     total cpu time spent up to now is     1272.9 secs

     Computing kpt #:    70  of    81
     total cpu time spent up to now is     1289.6 secs

     Computing kpt #:    71  of    81
     total cpu time spent up to now is     1306.0 secs

     Computing kpt #:    72  of    81
     total cpu time spent up to now is     1321.9 secs

     Computing kpt #:    73  of    81
     total cpu time spent up to now is     1337.2 secs

     Computing kpt #:    74  of    81
     total cpu time spent up to now is     1352.4 secs

     Computing kpt #:    75  of    81
     total cpu time spent up to now is     1367.1 secs

     Computing kpt #:    76  of    81
     total cpu time spent up to now is     1381.9 secs

     Computing kpt #:    77  of    81
     total cpu time spent up to now is     1396.4 secs

     Computing kpt #:    78  of    81
     total cpu time spent up to now is     1412.2 secs

     Computing kpt #:    79  of    81
     total cpu time spent up to now is     1426.6 secs

     Computing kpt #:    80  of    81
     total cpu time spent up to now is     1440.6 secs

     Computing kpt #:    81  of    81
     total cpu time spent up to now is     1454.6 secs

     ethr =  1.92E-12,  avg # of iterations =103.7

     total cpu time spent up to now is     1454.6 secs

     End of band structure calculation

          k = 0.0000 0.0000 0.0000 ( 34907 PWs)   bands (ev):

   -74.9896 -74.9896 -74.9523 -74.9523 -46.4391 -46.4391 -46.3414 -46.3414
   -36.7937 -36.7937 -36.6498 -36.6498 -36.6367 -36.6367 -36.4136 -36.4136
   -14.1490 -14.1490 -13.0347 -13.0347 -12.1354 -12.1354 -11.9228 -11.9228
    -7.0649  -7.0649  -6.6761  -6.6761  -5.8949  -5.8949  -5.2198  -5.2198
    -3.9754  -3.9754  -3.6772  -3.6772  -3.4819  -3.4819  -3.1325  -3.1325
    -2.7090  -2.7090  -2.4955  -2.4955  -1.9820  -1.9820  -1.5514  -1.5514
    -1.2981  -1.2981  -0.9399  -0.9399   0.1355   0.1355   0.3018   0.3018
     0.5996   0.5996   1.0373   1.0373   1.5911   1.5911

          k = 0.0250 0.0000 0.0000 ( 34923 PWs)   bands (ev):

   -74.9896 -74.9896 -74.9524 -74.9524 -46.4390 -46.4390 -46.3416 -46.3416
   -36.7940 -36.7939 -36.6513 -36.6512 -36.6353 -36.6352 -36.4140 -36.4140
   -14.1417 -14.1417 -13.0303 -13.0303 -12.1323 -12.1323 -11.9182 -11.9182
    -7.0577  -7.0577  -6.6674  -6.6674  -5.8924  -5.8924  -5.2162  -5.2162
    -3.9783  -3.9783  -3.6877  -3.6873  -3.5056  -3.5051  -3.1344  -3.1343
    -2.7090  -2.7089  -2.4943  -2.4941  -1.9877  -1.9876  -1.5884  -1.5881
    -1.2927  -1.2925  -0.9476  -0.9476   0.0080   0.0082   0.3917   0.3924
     0.6227   0.6232   1.0421   1.0422   1.5700   1.5702

          k = 0.0500 0.0000 0.0000 ( 34921 PWs)   bands (ev):

   -74.9894 -74.9894 -74.9525 -74.9525 -46.4388 -46.4388 -46.3422 -46.3422
   -36.7946 -36.7946 -36.6548 -36.6547 -36.6320 -36.6319 -36.4151 -36.4150
   -14.1199 -14.1199 -13.0169 -13.0169 -12.1231 -12.1230 -11.9043 -11.9043
    -7.0361  -7.0360  -6.6415  -6.6415  -5.8851  -5.8851  -5.2056  -5.2056
    -3.9879  -3.9878  -3.7194  -3.7185  -3.5662  -3.5653  -3.1489  -3.1488
    -2.7102  -2.7100  -2.4944  -2.4941  -2.0059  -2.0057  -1.6770  -1.6766
    -1.2866  -1.2862  -0.9685  -0.9684  -0.2047  -0.2044   0.4951   0.4962
     0.6811   0.6820   1.0584   1.0585   1.5189   1.5193

          k = 0.0750 0.0000 0.0000 ( 34947 PWs)   bands (ev):

   -74.9890 -74.9890 -74.9527 -74.9527 -46.4384 -46.4384 -46.3433 -46.3433
   -36.7957 -36.7957 -36.6592 -36.6591 -36.6280 -36.6279 -36.4168 -36.4168
   -14.0836 -14.0836 -12.9948 -12.9948 -12.1078 -12.1078 -11.8816 -11.8816
    -7.0005  -7.0005  -6.5986  -6.5986  -5.8737  -5.8736  -5.1887  -5.1886
    -4.0057  -4.0056  -3.7751  -3.7739  -3.6435  -3.6422  -3.1922  -3.1920
    -2.7156  -2.7154  -2.5054  -2.5048  -2.0413  -2.0408  -1.7774  -1.7771
    -1.2895  -1.2891  -0.9975  -0.9973  -0.4455  -0.4451   0.5615   0.5628
     0.7490   0.7501   1.0902   1.0904   1.4630   1.4634

          k = 0.1000 0.0000 0.0000 ( 34923 PWs)   bands (ev):

   -74.9885 -74.9885 -74.9530 -74.9530 -46.4378 -46.4378 -46.3448 -46.3448
   -36.7971 -36.7970 -36.6643 -36.6642 -36.6234 -36.6233 -36.4193 -36.4192
   -14.0331 -14.0331 -12.9641 -12.9641 -12.0870 -12.0869 -11.8505 -11.8505
    -6.9516  -6.9516  -6.5395  -6.5395  -5.8590  -5.8589  -5.1664  -5.1663
    -4.0345  -4.0342  -3.8608  -3.8596  -3.7186  -3.7173  -3.2752  -3.2750
    -2.7291  -2.7288  -2.5353  -2.5345  -2.0988  -2.0979  -1.8588  -1.8584
    -1.3023  -1.3019  -1.0313  -1.0312  -0.6988  -0.6982   0.5817   0.5828
     0.8130   0.8139   1.1355   1.1359   1.4219   1.4223

          k = 0.1250 0.0000 0.0000 ( 34917 PWs)   bands (ev):

   -74.9879 -74.9879 -74.9534 -74.9534 -46.4370 -46.4370 -46.3467 -46.3467
   -36.7988 -36.7987 -36.6699 -36.6698 -36.6185 -36.6184 -36.4223 -36.4223
   -13.9686 -13.9686 -12.9252 -12.9252 -12.0609 -12.0609 -11.8118 -11.8118
    -6.8904  -6.8903  -6.4649  -6.4649  -5.8425  -5.8424  -5.1402  -5.1400
    -4.0799  -4.0794  -3.9730  -3.9721  -3.7875  -3.7866  -3.3963  -3.3961
    -2.7531  -2.7528  -2.5820  -2.5812  -2.1788  -2.1777  -1.9187  -1.9181
    -1.3273  -1.3268  -1.0816  -1.0812  -0.9290  -0.9281   0.5596   0.5603
     0.8731   0.8737   1.1696   1.1702   1.3962   1.3965

          k = 0.1500 0.0000 0.0000 ( 34879 PWs)   bands (ev):

   -74.9872 -74.9872 -74.9539 -74.9539 -46.4360 -46.4360 -46.3489 -46.3489
   -36.8006 -36.8005 -36.6761 -36.6760 -36.6133 -36.6131 -36.4260 -36.4259
   -13.8906 -13.8905 -12.8784 -12.8784 -12.0303 -12.0303 -11.7667 -11.7667
    -6.8183  -6.8182  -6.3761  -6.3761  -5.8260  -5.8258  -5.1118  -5.1116
    -4.1755  -4.1746  -4.0775  -4.0767  -3.8569  -3.8564  -3.5361  -3.5360
    -2.7872  -2.7869  -2.6387  -2.6379  -2.2844  -2.2834  -1.9756  -1.9750
    -1.3894  -1.3886  -1.2137  -1.2131  -1.0183  -1.0174   0.5160   0.5164
     0.9258   0.9264   1.1355   1.1364   1.3574   1.3584

          k = 0.1750 0.0000 0.0000 ( 34892 PWs)   bands (ev):

   -74.9863 -74.9863 -74.9545 -74.9545 -46.4349 -46.4349 -46.3515 -46.3515
   -36.8025 -36.8024 -36.6828 -36.6827 -36.6076 -36.6075 -36.4301 -36.4300
   -13.7995 -13.7994 -12.8243 -12.8243 -11.9960 -11.9960 -11.7164 -11.7164
    -6.7371  -6.7369  -6.2752  -6.2752  -5.8110  -5.8109  -5.0835  -5.0833
    -4.3527  -4.3522  -4.1438  -4.1433  -3.9283  -3.9281  -3.6691  -3.6689
    -2.8297  -2.8294  -2.7076  -2.7068  -2.4210  -2.4202  -2.0484  -2.0479
    -1.5334  -1.5326  -1.3098  -1.3092  -1.0098  -1.0091   0.4693   0.4696
     0.9450   0.9463   1.0453   1.0454   1.3282   1.3293

          k = 0.2000 0.0000 0.0000 ( 34918 PWs)   bands (ev):

   -74.9854 -74.9854 -74.9552 -74.9552 -46.4335 -46.4335 -46.3544 -46.3544
   -36.8043 -36.8042 -36.6901 -36.6899 -36.6017 -36.6015 -36.4347 -36.4346
   -13.6959 -13.6958 -12.7635 -12.7635 -11.9589 -11.9588 -11.6627 -11.6627
    -6.6492  -6.6490  -6.1653  -6.1653  -5.7988  -5.7986  -5.0586  -5.0585
    -4.5741  -4.5738  -4.2040  -4.2034  -3.9944  -3.9940  -3.7846  -3.7844
    -2.8863  -2.8859  -2.8060  -2.8054  -2.5700  -2.5696  -2.1484  -2.1481
    -1.6812  -1.6806  -1.3687  -1.3681  -0.9610  -0.9603   0.4299   0.4302
     0.8418   0.8430   1.0590   1.0593   1.3188   1.3196

          k = 0.2250 0.0000 0.0000 ( 34936 PWs)   bands (ev):

   -74.9843 -74.9843 -74.9559 -74.9559 -46.4320 -46.4320 -46.3576 -46.3576
   -36.8059 -36.8058 -36.6978 -36.6976 -36.5954 -36.5952 -36.4398 -36.4397
   -13.5805 -13.5804 -12.6967 -12.6967 -11.9200 -11.9200 -11.6078 -11.6077
    -6.5580  -6.5578  -6.0534  -6.0533  -5.7872  -5.7869  -5.0487  -5.0485
    -4.8049  -4.8047  -4.2664  -4.2659  -4.0480  -4.0475  -3.8860  -3.8858
    -3.0308  -3.0303  -2.8996  -2.8993  -2.6827  -2.6824  -2.2719  -2.2715
    -1.7884  -1.7879  -1.4275  -1.4270  -0.8824  -0.8818   0.4017   0.4020
     0.7210   0.7220   1.1044   1.1047   1.3231   1.3236

          k = 0.2500 0.0000 0.0000 ( 34944 PWs)   bands (ev):

   -74.9832 -74.9832 -74.9568 -74.9568 -46.4302 -46.4302 -46.3611 -46.3611
   -36.8072 -36.8071 -36.7059 -36.7058 -36.5888 -36.5886 -36.4452 -36.4450
   -13.4541 -13.4541 -12.6249 -12.6249 -11.8808 -11.8807 -11.5541 -11.5541
    -6.4678  -6.4676  -5.9581  -5.9581  -5.7625  -5.7622  -5.1403  -5.1400
    -4.9381  -4.9379  -4.3321  -4.3317  -4.0954  -4.0951  -3.9718  -3.9716
    -3.2728  -3.2723  -2.9592  -2.9590  -2.7584  -2.7576  -2.4009  -2.4002
    -1.8669  -1.8666  -1.4919  -1.4915  -0.7808  -0.7803   0.3834   0.3838
     0.6263   0.6271   1.1388   1.1393   1.3445   1.3449

          k = 0.2750 0.0000 0.0000 ( 34976 PWs)   bands (ev):

   -74.9819 -74.9819 -74.9577 -74.9577 -46.4283 -46.4283 -46.3648 -46.3648
   -36.8082 -36.8081 -36.7143 -36.7142 -36.5819 -36.5817 -36.4509 -36.4508
   -13.3180 -13.3179 -12.5491 -12.5491 -11.8425 -11.8424 -11.5049 -11.5049
    -6.3849  -6.3845  -5.9158  -5.9156  -5.6953  -5.6950  -5.3505  -5.3502
    -4.9370  -4.9368  -4.4005  -4.4002  -4.1617  -4.1612  -4.0295  -4.0295
    -3.5271  -3.5265  -3.0192  -3.0190  -2.8196  -2.8184  -2.5180  -2.5169
    -1.9338  -1.9335  -1.5636  -1.5632  -0.6613  -0.6608   0.3694   0.3699
     0.5699   0.5705   1.1455   1.1461   1.3842   1.3844

          k = 0.3000 0.0000 0.0000 ( 34974 PWs)   bands (ev):

   -74.9806 -74.9806 -74.9587 -74.9587 -46.4261 -46.4261 -46.3686 -46.3686
   -36.8086 -36.8085 -36.7230 -36.7229 -36.5748 -36.5746 -36.4569 -36.4568
   -13.1732 -13.1731 -12.4706 -12.4706 -11.8068 -11.8067 -11.4635 -11.4635
    -6.3178  -6.3174  -5.9253  -5.9250  -5.6100  -5.6090  -5.5360  -5.5350
    -4.9120  -4.9118  -4.4692  -4.4689  -4.2553  -4.2547  -4.0884  -4.0882
    -3.7274  -3.7267  -3.0843  -3.0842  -2.8753  -2.8738  -2.6124  -2.6110
    -1.9995  -1.9992  -1.6440  -1.6437  -0.5277  -0.5272   0.3553   0.3559
     0.5574   0.5578   1.1220   1.1228   1.4240   1.4241

          k = 0.3250 0.0000 0.0000 ( 34976 PWs)   bands (ev):

   -74.9792 -74.9792 -74.9597 -74.9597 -46.4237 -46.4237 -46.3726 -46.3726
   -36.8085 -36.8083 -36.7318 -36.7317 -36.5674 -36.5672 -36.4633 -36.4631
   -13.0215 -13.0214 -12.3908 -12.3908 -11.7751 -11.7750 -11.4337 -11.4337
    -6.2800  -6.2796  -5.9632  -5.9627  -5.7138  -5.7134  -5.4856  -5.4853
    -4.8833  -4.8830  -4.5353  -4.5349  -4.3672  -4.3666  -4.2078  -4.2072
    -3.7985  -3.7979  -3.1547  -3.1545  -2.9262  -2.9246  -2.6816  -2.6801
    -2.0687  -2.0685  -1.7343  -1.7341  -0.3835  -0.3830   0.3474   0.3481
     0.5807   0.5809   1.0736   1.0745   1.4112   1.4115

          k = 0.3500 0.0000 0.0000 ( 34972 PWs)   bands (ev):

   -74.9778 -74.9778 -74.9609 -74.9609 -46.4211 -46.4211 -46.3767 -46.3767
   -36.8076 -36.8075 -36.7406 -36.7404 -36.5599 -36.5597 -36.4698 -36.4697
   -12.8647 -12.8646 -12.3116 -12.3116 -11.7488 -11.7487 -11.4193 -11.4193
    -6.2876  -6.2874  -6.0111  -6.0107  -5.8004  -5.8000  -5.4176  -5.4175
    -4.8721  -4.8715  -4.6118  -4.6112  -4.4708  -4.4703  -4.3192  -4.3185
    -3.7778  -3.7774  -3.2295  -3.2293  -2.9714  -2.9699  -2.7274  -2.7259
    -2.1425  -2.1424  -1.8348  -1.8346  -0.2325  -0.2321   0.3550   0.3558
     0.6254   0.6255   1.0075   1.0087   1.3235   1.3237

          k = 0.3750 0.0000 0.0000 ( 34946 PWs)   bands (ev):

   -74.9764 -74.9764 -74.9621 -74.9621 -46.4182 -46.4182 -46.3808 -46.3808
   -36.8061 -36.8060 -36.7492 -36.7491 -36.5522 -36.5520 -36.4766 -36.4765
   -12.7054 -12.7053 -12.2351 -12.2351 -11.7291 -11.7290 -11.4234 -11.4234
    -6.3361  -6.3360  -6.0496  -6.0493  -5.8393  -5.8388  -5.4000  -5.3999
    -4.9218  -4.9210  -4.7092  -4.7084  -4.4913  -4.4910  -4.3557  -4.3552
    -3.7306  -3.7303  -3.3072  -3.3069  -3.0095  -3.0083  -2.7516  -2.7504
    -2.2197  -2.2196  -1.9449  -1.9448  -0.0796  -0.0792   0.3810   0.3819
     0.6795   0.6796   0.9336   0.9350   1.2220   1.2223

          k = 0.4000 0.0000 0.0000 ( 34968 PWs)   bands (ev):

   -74.9749 -74.9749 -74.9634 -74.9634 -46.4152 -46.4152 -46.3850 -46.3850
   -36.8038 -36.8036 -36.7576 -36.7575 -36.5445 -36.5443 -36.4836 -36.4835
   -12.5469 -12.5468 -12.1641 -12.1640 -11.7164 -11.7163 -11.4479 -11.4479
    -6.3899  -6.3898  -6.0847  -6.0844  -5.8526  -5.8521  -5.4461  -5.4460
    -5.0136  -5.0127  -4.8000  -4.7993  -4.4350  -4.4349  -4.3155  -4.3153
    -3.6932  -3.6930  -3.3863  -3.3860  -3.0327  -3.0317  -2.7570  -2.7559
    -2.2970  -2.2969  -2.0628  -2.0627   0.0694   0.0698   0.4216   0.4227
     0.7306   0.7308   0.8657   0.8674   1.1285   1.1290

          k = 0.4250 0.0000 0.0000 ( 34964 PWs)   bands (ev):

   -74.9734 -74.9734 -74.9647 -74.9647 -46.4119 -46.4119 -46.3891 -46.3891
   -36.8006 -36.8005 -36.7656 -36.7655 -36.5367 -36.5365 -36.4908 -36.4907
   -12.3939 -12.3938 -12.1025 -12.1024 -11.7100 -11.7098 -11.4923 -11.4923
    -6.4213  -6.4212  -6.1284  -6.1282  -5.8531  -5.8525  -5.5405  -5.5404
    -5.0806  -5.0795  -4.8902  -4.8895  -4.3371  -4.3370  -4.2243  -4.2240
    -3.6950  -3.6947  -3.4684  -3.4680  -3.0221  -3.0214  -2.7493  -2.7485
    -2.3699  -2.3697  -2.1849  -2.1848   0.2073   0.2080   0.4666   0.4681
     0.7556   0.7559   0.8279   0.8296   1.0575   1.0581

          k = 0.4500 0.0000 0.0000 ( 34950 PWs)   bands (ev):

   -74.9719 -74.9719 -74.9660 -74.9660 -46.4085 -46.4085 -46.3932 -46.3932
   -36.7967 -36.7965 -36.7731 -36.7730 -36.5289 -36.5287 -36.4982 -36.4980
   -12.2535 -12.2533 -12.0566 -12.0564 -11.7064 -11.7062 -11.5523 -11.5522
    -6.4203  -6.4202  -6.1862  -6.1860  -5.8441  -5.8436  -5.6440  -5.6439
    -5.1113  -5.1101  -4.9731  -4.9722  -4.2215  -4.2213  -4.1087  -4.1085
    -3.7426  -3.7422  -3.5616  -3.5611  -2.9667  -2.9662  -2.7393  -2.7386
    -2.4321  -2.4319  -2.3035  -2.3033   0.3260   0.3271   0.4994   0.5015
     0.7457   0.7469   0.8233   0.8244   1.0302   1.0307

          k = 0.4750 0.0000 0.0000 ( 34960 PWs)   bands (ev):

   -74.9704 -74.9704 -74.9674 -74.9674 -46.4049 -46.4049 -46.3972 -46.3972
   -36.7919 -36.7918 -36.7801 -36.7799 -36.5211 -36.5209 -36.5057 -36.5055
   -12.1371 -12.1369 -12.0374 -12.0372 -11.6975 -11.6973 -11.6173 -11.6171
    -6.3870  -6.3869  -6.2564  -6.2562  -5.8236  -5.8233  -5.7284  -5.7283
    -5.1126  -5.1114  -5.0407  -5.0397  -4.1032  -4.1030  -4.0012  -4.0010
    -3.8056  -3.8050  -3.6699  -3.6694  -2.8813  -2.8807  -2.7466  -2.7459
    -2.4708  -2.4707  -2.4036  -2.4035   0.4174   0.4190   0.5042   0.5065
     0.7488   0.7501   0.8030   0.8039   1.0584   1.0587

          k = 0.5000 0.0000 0.0000 ( 34956 PWs)   bands (ev):

   -74.9692 -74.9692 -74.9686 -74.9686 -46.4013 -46.4013 -46.4009 -46.4009
   -36.7864 -36.7864 -36.7862 -36.7862 -36.5134 -36.5134 -36.5131 -36.5131
   -12.0618 -12.0618 -12.0607 -12.0607 -11.6702 -11.6702 -11.6695 -11.6695
    -6.3289  -6.3289  -6.3276  -6.3276  -5.7869  -5.7869  -5.7868  -5.7868
    -5.0884  -5.0884  -5.0870  -5.0870  -4.0029  -4.0029  -4.0023  -4.0023
    -3.7784  -3.7784  -3.7776  -3.7776  -2.7965  -2.7965  -2.7955  -2.7955
    -2.4643  -2.4643  -2.4638  -2.4638   0.4767   0.4767   0.4789   0.4789
     0.7721   0.7721   0.7735   0.7735   1.1231   1.1231

          k = 0.5000 0.0139 0.0000 ( 34976 PWs)   bands (ev):

   -74.9692 -74.9692 -74.9686 -74.9686 -46.4013 -46.4013 -46.4009 -46.4009
   -36.7864 -36.7864 -36.7862 -36.7862 -36.5134 -36.5134 -36.5131 -36.5131
   -12.0619 -12.0619 -12.0608 -12.0608 -11.6698 -11.6695 -11.6691 -11.6688
    -6.3401  -6.3388  -6.3380  -6.3367  -5.7868  -5.7866  -5.7840  -5.7838
    -5.0847  -5.0833  -5.0790  -5.0776  -4.0074  -4.0068  -3.9977  -3.9971
    -3.7815  -3.7807  -3.7668  -3.7660  -2.8255  -2.8247  -2.7659  -2.7647
    -2.4829  -2.4825  -2.4442  -2.4436   0.4572   0.4595   0.4951   0.4972
     0.7736   0.7745   0.7752   0.7759   1.1091   1.1099

          k = 0.5000 0.0279 0.0000 ( 34968 PWs)   bands (ev):

   -74.9692 -74.9692 -74.9686 -74.9686 -46.4013 -46.4013 -46.4009 -46.4009
   -36.7864 -36.7864 -36.7863 -36.7862 -36.5134 -36.5133 -36.5131 -36.5130
   -12.0621 -12.0621 -12.0610 -12.0610 -11.6686 -11.6679 -11.6679 -11.6672
    -6.3700  -6.3688  -6.3662  -6.3649  -5.7845  -5.7843  -5.7789  -5.7788
    -5.0683  -5.0669  -5.0574  -5.0561  -4.0115  -4.0110  -3.9919  -3.9914
    -3.7758  -3.7751  -3.7466  -3.7458  -2.8525  -2.8518  -2.7349  -2.7337
    -2.4987  -2.4982  -2.4229  -2.4222   0.4378   0.4401   0.5110   0.5128
     0.7800   0.7802   0.7813   0.7818   1.0985   1.0992

          k = 0.5000 0.0418 0.0000 ( 34974 PWs)   bands (ev):

   -74.9692 -74.9692 -74.9686 -74.9686 -46.4013 -46.4013 -46.4009 -46.4009
   -36.7865 -36.7865 -36.7864 -36.7863 -36.5133 -36.5132 -36.5130 -36.5130
   -12.0624 -12.0624 -12.0613 -12.0613 -11.6664 -11.6657 -11.6654 -11.6647
    -6.4148  -6.4137  -6.4098  -6.4087  -5.7820  -5.7817  -5.7740  -5.7738
    -5.0403  -5.0389  -5.0254  -5.0242  -4.0158  -4.0153  -3.9860  -3.9855
    -3.7610  -3.7603  -3.7175  -3.7167  -2.8773  -2.8769  -2.7064  -2.7051
    -2.5091  -2.5084  -2.4008  -2.3999   0.4195   0.4218   0.5229   0.5246
     0.7877   0.7890   0.7925   0.7941   1.0915   1.0921

          k = 0.5000 0.0557 0.0000 ( 34966 PWs)   bands (ev):

   -74.9692 -74.9692 -74.9686 -74.9686 -46.4013 -46.4013 -46.4009 -46.4009
   -36.7866 -36.7865 -36.7864 -36.7864 -36.5132 -36.5131 -36.5129 -36.5129
   -12.0628 -12.0628 -12.0617 -12.0617 -11.6633 -11.6626 -11.6621 -11.6613
    -6.4704  -6.4694  -6.4647  -6.4637  -5.7812  -5.7809  -5.7711  -5.7709
    -5.0028  -5.0015  -4.9854  -4.9844  -4.0203  -4.0198  -3.9804  -3.9799
    -3.7370  -3.7364  -3.6791  -3.6783  -2.9004  -2.9002  -2.6852  -2.6841
    -2.5092  -2.5082  -2.3777  -2.3766   0.4028   0.4051   0.5303   0.5317
     0.7973   0.7985   0.8103   0.8120   1.0883   1.0890

          k = 0.5000 0.0697 0.0000 ( 34946 PWs)   bands (ev):

   -74.9692 -74.9692 -74.9686 -74.9686 -46.4013 -46.4013 -46.4009 -46.4009
   -36.7867 -36.7866 -36.7866 -36.7865 -36.5131 -36.5130 -36.5128 -36.5127
   -12.0634 -12.0633 -12.0623 -12.0622 -11.6594 -11.6587 -11.6579 -11.6572
    -6.5329  -6.5320  -6.5270  -6.5260  -5.7831  -5.7827  -5.7714  -5.7711
    -4.9585  -4.9573  -4.9403  -4.9394  -4.0247  -4.0242  -3.9749  -3.9745
    -3.7045  -3.7039  -3.6316  -3.6308  -2.9222  -2.9221  -2.6768  -2.6758
    -2.4939  -2.4926  -2.3536  -2.3523   0.3881   0.3903   0.5331   0.5342
     0.8082   0.8094   0.8326   0.8342   1.0896   1.0902

          k = 0.5000 0.0836 0.0000 ( 34942 PWs)   bands (ev):

   -74.9692 -74.9692 -74.9686 -74.9686 -46.4013 -46.4013 -46.4009 -46.4009
   -36.7868 -36.7868 -36.7867 -36.7866 -36.5130 -36.5129 -36.5127 -36.5126
   -12.0639 -12.0638 -12.0629 -12.0627 -11.6549 -11.6541 -11.6532 -11.6524
    -6.5993  -6.5985  -6.5935  -6.5926  -5.7877  -5.7873  -5.7751  -5.7747
    -4.9103  -4.9093  -4.8928  -4.8920  -4.0279  -4.0274  -3.9690  -3.9686
    -3.6648  -3.6643  -3.5758  -3.5751  -2.9434  -2.9430  -2.6812  -2.6803
    -2.4632  -2.4618  -2.3283  -2.3268   0.3755   0.3777   0.5320   0.5329
     0.8203   0.8215   0.8570   0.8586   1.0960   1.0965

          k = 0.5000 0.0975 0.0000 ( 34956 PWs)   bands (ev):

   -74.9692 -74.9692 -74.9686 -74.9686 -46.4013 -46.4013 -46.4009 -46.4009
   -36.7870 -36.7869 -36.7868 -36.7867 -36.5128 -36.5127 -36.5125 -36.5124
   -12.0646 -12.0644 -12.0635 -12.0634 -11.6497 -11.6489 -11.6478 -11.6470
    -6.6673  -6.6665  -6.6618  -6.6610  -5.7949  -5.7944  -5.7817  -5.7813
    -4.8612  -4.8603  -4.8457  -4.8450  -4.0286  -4.0280  -3.9618  -3.9614
    -3.6199  -3.6194  -3.5132  -3.5125  -2.9641  -2.9634  -2.6939  -2.6930
    -2.4219  -2.4202  -2.3016  -2.3000   0.3650   0.3671   0.5278   0.5285
     0.8334   0.8346   0.8812   0.8827   1.1082   1.1085

          k = 0.5000 0.1115 0.0000 ( 34954 PWs)   bands (ev):

   -74.9692 -74.9692 -74.9686 -74.9686 -46.4013 -46.4013 -46.4009 -46.4009
   -36.7871 -36.7870 -36.7870 -36.7869 -36.5126 -36.5125 -36.5124 -36.5123
   -12.0652 -12.0651 -12.0642 -12.0640 -11.6440 -11.6433 -11.6420 -11.6413
    -6.7349  -6.7343  -6.7299  -6.7292  -5.8039  -5.8035  -5.7906  -5.7902
    -4.8137  -4.8130  -4.8012  -4.8006  -4.0253  -4.0246  -3.9521  -3.9517
    -3.5718  -3.5713  -3.4459  -3.4452  -2.9845  -2.9835  -2.7107  -2.7097
    -2.3740  -2.3724  -2.2734  -2.2717   0.3567   0.3586   0.5214   0.5220
     0.8473   0.8484   0.9027   0.9042   1.1266   1.1268

          k = 0.5000 0.1254 0.0000 ( 34958 PWs)   bands (ev):

   -74.9692 -74.9692 -74.9686 -74.9686 -46.4013 -46.4013 -46.4009 -46.4009
   -36.7873 -36.7872 -36.7872 -36.7870 -36.5125 -36.5124 -36.5122 -36.5121
   -12.0659 -12.0658 -12.0649 -12.0647 -11.6381 -11.6373 -11.6360 -11.6352
    -6.8009  -6.8003  -6.7964  -6.7958  -5.8143  -5.8138  -5.8012  -5.8007
    -4.7702  -4.7696  -4.7610  -4.7605  -4.0166  -4.0159  -3.9388  -3.9383
    -3.5229  -3.5224  -3.3766  -3.3760  -3.0041  -3.0029  -2.7287  -2.7276
    -2.3225  -2.3208  -2.2436  -2.2418   0.3503   0.3521   0.5134   0.5139
     0.8618   0.8628   0.9202   0.9217   1.1508   1.1509

          k = 0.5000 0.1393 0.0000 ( 34962 PWs)   bands (ev):

   -74.9692 -74.9692 -74.9686 -74.9686 -46.4013 -46.4013 -46.4009 -46.4009
   -36.7875 -36.7874 -36.7873 -36.7872 -36.5123 -36.5122 -36.5120 -36.5119
   -12.0666 -12.0665 -12.0656 -12.0654 -11.6319 -11.6311 -11.6298 -11.6289
    -6.8640  -6.8635  -6.8602  -6.8596  -5.8254  -5.8248  -5.8128  -5.8123
    -4.7323  -4.7318  -4.7263  -4.7260  -4.0014  -4.0006  -3.9210  -3.9204
    -3.4757  -3.4752  -3.3097  -3.3091  -3.0213  -3.0198  -2.7460  -2.7448
    -2.2690  -2.2672  -2.2120  -2.2102   0.3459   0.3475   0.5044   0.5047
     0.8765   0.8774   0.9335   0.9349   1.1795   1.1797

          k = 0.5000 0.1533 0.0000 ( 34972 PWs)   bands (ev):

   -74.9692 -74.9692 -74.9686 -74.9686 -46.4013 -46.4013 -46.4009 -46.4009
   -36.7876 -36.7875 -36.7875 -36.7874 -36.5121 -36.5120 -36.5118 -36.5117
   -12.0673 -12.0671 -12.0663 -12.0661 -11.6256 -11.6248 -11.6236 -11.6227
    -6.9234  -6.9229  -6.9202  -6.9196  -5.8367  -5.8361  -5.8247  -5.8242
    -4.7010  -4.7007  -4.6978  -4.6976  -3.9791  -3.9781  -3.8984  -3.8977
    -3.4329  -3.4323  -3.2521  -3.2516  -3.0313  -3.0295  -2.7612  -2.7599
    -2.2148  -2.2130  -2.1789  -2.1770   0.3434   0.3448   0.4945   0.4949
     0.8911   0.8920   0.9430   0.9444   1.2107   1.2111

          k = 0.5000 0.1672 0.0000 ( 34980 PWs)   bands (ev):

   -74.9692 -74.9692 -74.9686 -74.9686 -46.4014 -46.4014 -46.4009 -46.4009
   -36.7878 -36.7877 -36.7876 -36.7875 -36.5119 -36.5118 -36.5116 -36.5115
   -12.0679 -12.0677 -12.0669 -12.0667 -11.6195 -11.6187 -11.6175 -11.6167
    -6.9784  -6.9779  -6.9757  -6.9751  -5.8476  -5.8470  -5.8366  -5.8361
    -4.6767  -4.6764  -4.6755  -4.6754  -3.9498  -3.9487  -3.8710  -3.8702
    -3.3969  -3.3963  -3.2160  -3.2155  -3.0245  -3.0225  -2.7728  -2.7715
    -2.1613  -2.1595  -2.1442  -2.1423   0.3427   0.3438   0.4843   0.4847
     0.9052   0.9061   0.9495   0.9510   1.2426   1.2432

          k = 0.5000 0.1811 0.0000 ( 34988 PWs)   bands (ev):

   -74.9692 -74.9692 -74.9686 -74.9686 -46.4014 -46.4014 -46.4009 -46.4009
   -36.7879 -36.7879 -36.7878 -36.7877 -36.5118 -36.5117 -36.5115 -36.5114
   -12.0685 -12.0683 -12.0675 -12.0673 -11.6137 -11.6128 -11.6118 -11.6109
    -7.0282  -7.0277  -7.0260  -7.0255  -5.8580  -5.8573  -5.8480  -5.8474
    -4.6589  -4.6588  -4.6588  -4.6586  -3.9143  -3.9131  -3.8394  -3.8385
    -3.3699  -3.3693  -3.2095  -3.2090  -2.9943  -2.9925  -2.7800  -2.7786
    -2.1098  -2.1084  -2.1080  -2.1065   0.3437   0.3447   0.4737   0.4742
     0.9184   0.9192   0.9537   0.9553   1.2735   1.2743

          k = 0.5000 0.1951 0.0000 ( 34988 PWs)   bands (ev):

   -74.9692 -74.9692 -74.9686 -74.9686 -46.4014 -46.4014 -46.4009 -46.4009
   -36.7881 -36.7880 -36.7879 -36.7878 -36.5116 -36.5115 -36.5113 -36.5112
   -12.0690 -12.0688 -12.0680 -12.0678 -11.6082 -11.6073 -11.6065 -11.6056
    -7.0723  -7.0719  -7.0706  -7.0701  -5.8673  -5.8667  -5.8586  -5.8580
    -4.6472  -4.6470  -4.6465  -4.6463  -3.8739  -3.8727  -3.8048  -3.8039
    -3.3531  -3.3524  -3.2250  -3.2242  -2.9504  -2.9488  -2.7825  -2.7811
    -2.0722  -2.0702  -2.0616  -2.0597   0.3466   0.3473   0.4629   0.4636
     0.9301   0.9309   0.9564   0.9580   1.3023   1.3033

          k = 0.5000 0.2090 0.0000 ( 35008 PWs)   bands (ev):

   -74.9692 -74.9692 -74.9686 -74.9686 -46.4014 -46.4014 -46.4009 -46.4009
   -36.7882 -36.7881 -36.7880 -36.7880 -36.5115 -36.5114 -36.5112 -36.5111
   -12.0695 -12.0693 -12.0685 -12.0683 -11.6033 -11.6024 -11.6018 -11.6009
    -7.1104  -7.1100  -7.1091  -7.1086  -5.8755  -5.8748  -5.8681  -5.8674
    -4.6393  -4.6391  -4.6385  -4.6382  -3.8303  -3.8291  -3.7687  -3.7677
    -3.3465  -3.3457  -3.2513  -3.2503  -2.9047  -2.9032  -2.7808  -2.7794
    -2.0364  -2.0344  -2.0182  -2.0164   0.3512   0.3517   0.4519   0.4527
     0.9401   0.9409   0.9579   0.9595   1.3282   1.3294

          k = 0.5000 0.2229 0.0000 ( 34996 PWs)   bands (ev):

   -74.9692 -74.9692 -74.9686 -74.9686 -46.4014 -46.4014 -46.4009 -46.4009
   -36.7883 -36.7882 -36.7881 -36.7881 -36.5113 -36.5113 -36.5110 -36.5110
   -12.0698 -12.0697 -12.0688 -12.0687 -11.5991 -11.5982 -11.5978 -11.5969
    -7.1421  -7.1417  -7.1411  -7.1406  -5.8823  -5.8816  -5.8762  -5.8756
    -4.6344  -4.6341  -4.6336  -4.6333  -3.7857  -3.7845  -3.7329  -3.7319
    -3.3488  -3.3479  -3.2823  -3.2812  -2.8633  -2.8619  -2.7763  -2.7749
    -2.0026  -2.0006  -1.9813  -1.9794   0.3574   0.3579   0.4408   0.4417
     0.9480   0.9488   0.9587   0.9604   1.3509   1.3522

          k = 0.5000 0.2369 0.0000 ( 35000 PWs)   bands (ev):

   -74.9692 -74.9692 -74.9686 -74.9686 -46.4014 -46.4014 -46.4009 -46.4009
   -36.7884 -36.7883 -36.7882 -36.7882 -36.5112 -36.5112 -36.5109 -36.5109
   -12.0701 -12.0700 -12.0691 -12.0690 -11.5956 -11.5947 -11.5946 -11.5937
    -7.1669  -7.1666  -7.1662  -7.1658  -5.8875  -5.8868  -5.8829  -5.8822
    -4.6315  -4.6311  -4.6308  -4.6305  -3.7424  -3.7413  -3.6998  -3.6990
    -3.3574  -3.3564  -3.3143  -3.3131  -2.8289  -2.8275  -2.7712  -2.7698
    -1.9723  -1.9704  -1.9521  -1.9502   0.3652   0.3656   0.4295   0.4304
     0.9536   0.9547   0.9592   0.9609   1.3704   1.3718

          k = 0.5000 0.2508 0.0000 ( 35012 PWs)   bands (ev):

   -74.9692 -74.9692 -74.9686 -74.9686 -46.4014 -46.4014 -46.4009 -46.4009
   -36.7884 -36.7884 -36.7883 -36.7883 -36.5111 -36.5111 -36.5109 -36.5108
   -12.0703 -12.0703 -12.0693 -12.0693 -11.5930 -11.5924 -11.5921 -11.5915
    -7.1849  -7.1845  -7.1844  -7.1840  -5.8911  -5.8904  -5.8880  -5.8873
    -4.6299  -4.6295  -4.6295  -4.6291  -3.7034  -3.7024  -3.6730  -3.6723
    -3.3685  -3.3675  -3.3437  -3.3426  -2.8023  -2.8010  -2.7676  -2.7662
    -1.9475  -1.9456  -1.9319  -1.9300   0.3742   0.3748   0.4180   0.4190
     0.9573   0.9584   0.9596   0.9613   1.3868   1.3883

          k = 0.5000 0.2647 0.0000 ( 34996 PWs)   bands (ev):

   -74.9692 -74.9692 -74.9686 -74.9686 -46.4014 -46.4014 -46.4009 -46.4009
   -36.7885 -36.7885 -36.7883 -36.7883 -36.5111 -36.5111 -36.5108 -36.5108
   -12.0704 -12.0704 -12.0695 -12.0694 -11.5914 -11.5910 -11.5905 -11.5901
    -7.1956  -7.1954  -7.1952  -7.1950  -5.8930  -5.8922  -5.8914  -5.8907
    -4.6291  -4.6289  -4.6287  -4.6285  -3.6731  -3.6723  -3.6570  -3.6564
    -3.3773  -3.3762  -3.3663  -3.3652  -2.7836  -2.7823  -2.7674  -2.7660
    -1.9299  -1.9279  -1.9214  -1.9195   0.3844   0.3851   0.4066   0.4075
     0.9592   0.9599   0.9605   0.9615   1.4005   1.4020

          k = 0.5000 0.2787 0.0000 ( 34992 PWs)   bands (ev):

   -74.9692 -74.9692 -74.9686 -74.9686 -46.4014 -46.4014 -46.4009 -46.4009
   -36.7885 -36.7885 -36.7883 -36.7883 -36.5111 -36.5111 -36.5108 -36.5108
   -12.0705 -12.0705 -12.0695 -12.0695 -11.5907 -11.5907 -11.5898 -11.5898
    -7.1992  -7.1992  -7.1988  -7.1988  -5.8931  -5.8931  -5.8923  -5.8923
    -4.6288  -4.6288  -4.6284  -4.6284  -3.6565  -3.6565  -3.6559  -3.6559
    -3.3778  -3.3778  -3.3768  -3.3768  -2.7723  -2.7723  -2.7710  -2.7710
    -1.9208  -1.9208  -1.9189  -1.9189   0.3952   0.3952   0.3961   0.3961
     0.9599   0.9599   0.9614   0.9614   1.4116   1.4117

          k = 0.4750 0.2787 0.0000 ( 34984 PWs)   bands (ev):

   -74.9704 -74.9704 -74.9675 -74.9675 -46.4049 -46.4049 -46.3973 -46.3973
   -36.7938 -36.7937 -36.7823 -36.7822 -36.5185 -36.5183 -36.5037 -36.5035
   -12.0929 -12.0927 -12.0635 -12.0632 -11.6628 -11.6627 -11.5390 -11.5390
    -7.2252  -7.2251  -7.1260  -7.1259  -5.9415  -5.9414  -5.8215  -5.8214
    -4.6484  -4.6481  -4.6191  -4.6189  -3.7594  -3.7592  -3.6200  -3.6198
    -3.3722  -3.3714  -3.3226  -3.3220  -2.8031  -2.8020  -2.7455  -2.7447
    -1.9443  -1.9435  -1.9069  -1.9061   0.3412   0.3415   0.4322   0.4324
     0.9420   0.9424   1.0000   1.0004   1.3345   1.3349

          k = 0.4500 0.2787 0.0000 ( 34980 PWs)   bands (ev):

   -74.9719 -74.9719 -74.9661 -74.9661 -46.4084 -46.4084 -46.3933 -46.3933
   -36.7984 -36.7982 -36.7755 -36.7754 -36.5260 -36.5259 -36.4965 -36.4964
   -12.1320 -12.1318 -12.0722 -12.0720 -11.7536 -11.7535 -11.5102 -11.5101
    -7.2036  -7.2035  -7.0093  -7.0092  -5.9657  -5.9655  -5.7313  -5.7312
    -4.6841  -4.6838  -4.6134  -4.6132  -3.8889  -3.8887  -3.6486  -3.6485
    -3.3280  -3.3276  -3.2258  -3.2257  -2.8435  -2.8423  -2.7165  -2.7159
    -1.9789  -1.9781  -1.9026  -1.9018   0.2701   0.2704   0.4524   0.4526
     0.9330   0.9334   1.0597   1.0602   1.2710   1.2713

          k = 0.4250 0.2787 0.0000 ( 34950 PWs)   bands (ev):

   -74.9734 -74.9734 -74.9647 -74.9647 -46.4118 -46.4118 -46.3893 -46.3893
   -36.8021 -36.8019 -36.7681 -36.7679 -36.5337 -36.5335 -36.4896 -36.4894
   -12.1867 -12.1865 -12.0954 -12.0952 -11.8585 -11.8585 -11.5031 -11.5030
    -7.1361  -7.1360  -6.8538  -6.8538  -5.9645  -5.9643  -5.6273  -5.6272
    -4.7408  -4.7404  -4.6059  -4.6057  -4.0235  -4.0234  -3.7035  -3.7033
    -3.2699  -3.2697  -3.1213  -3.1209  -2.8946  -2.8934  -2.6787  -2.6782
    -2.0213  -2.0206  -1.9049  -1.9042   0.1845   0.1849   0.4587   0.4588
     0.9167   0.9172   1.1095   1.1099   1.2565   1.2566

          k = 0.4000 0.2787 0.0000 ( 34966 PWs)   bands (ev):

   -74.9749 -74.9749 -74.9634 -74.9634 -46.4150 -46.4150 -46.3852 -46.3852
   -36.8049 -36.8047 -36.7601 -36.7599 -36.5414 -36.5412 -36.4828 -36.4826
   -12.2557 -12.2556 -12.1325 -12.1324 -11.9720 -11.9719 -11.5156 -11.5155
    -7.0269  -7.0268  -6.6659  -6.6658  -5.9382  -5.9380  -5.5171  -5.5170
    -4.8198  -4.8193  -4.5934  -4.5932  -4.1514  -4.1512  -3.7669  -3.7668
    -3.2041  -3.2038  -3.0415  -3.0403  -2.9411  -2.9394  -2.6274  -2.6271
    -2.0667  -2.0660  -1.9117  -1.9110   0.0879   0.0884   0.4534   0.4535
     0.8822   0.8827   1.1162   1.1166   1.3106   1.3110

          k = 0.3750 0.2787 0.0000 ( 34942 PWs)   bands (ev):

   -74.9764 -74.9763 -74.9621 -74.9621 -46.4180 -46.4180 -46.3811 -46.3811
   -36.8069 -36.8067 -36.7517 -36.7516 -36.5490 -36.5488 -36.4763 -36.4761
   -12.3369 -12.3367 -12.1874 -12.1873 -12.0842 -12.0841 -11.5445 -11.5445
    -6.8828  -6.8827  -6.4531  -6.4531  -5.8879  -5.8876  -5.4099  -5.4098
    -4.9173  -4.9168  -4.5829  -4.5826  -4.2544  -4.2543  -3.8320  -3.8318
    -3.1482  -3.1479  -3.0472  -3.0463  -2.9089  -2.9078  -2.5619  -2.5616
    -2.1093  -2.1087  -1.9206  -1.9198  -0.0157  -0.0153   0.4379   0.4380
     0.8360   0.8366   1.1141   1.1144   1.3643   1.3649

          k = 0.3500 0.2787 0.0000 ( 34908 PWs)   bands (ev):

   -74.9778 -74.9778 -74.9609 -74.9609 -46.4208 -46.4208 -46.3770 -46.3770
   -36.8081 -36.8079 -36.7430 -36.7429 -36.5567 -36.5565 -36.4699 -36.4698
   -12.4276 -12.4274 -12.2736 -12.2735 -12.1756 -12.1755 -11.5862 -11.5862
    -6.7130  -6.7129  -6.2254  -6.2254  -5.8152  -5.8149  -5.3146  -5.3144
    -5.0241  -5.0234  -4.6058  -4.6054  -4.2930  -4.2929  -3.8940  -3.8938
    -3.1808  -3.1802  -3.0118  -3.0114  -2.8451  -2.8443  -2.4878  -2.4875
    -2.1439  -2.1432  -1.9279  -1.9272  -0.1223  -0.1218   0.4126   0.4127
     0.7920   0.7925   1.1157   1.1159   1.3784   1.3791

          k = 0.3250 0.2787 0.0000 ( 34888 PWs)   bands (ev):

   -74.9792 -74.9792 -74.9598 -74.9598 -46.4234 -46.4233 -46.3730 -46.3729
   -36.8085 -36.8084 -36.7341 -36.7340 -36.5642 -36.5640 -36.4639 -36.4638
   -12.5249 -12.5247 -12.3880 -12.3878 -12.2441 -12.2440 -11.6372 -11.6372
    -6.5307  -6.5306  -5.9978  -5.9977  -5.7224  -5.7221  -5.2388  -5.2382
    -5.1207  -5.1196  -4.6807  -4.6804  -4.2463  -4.2462  -3.9483  -3.9482
    -3.2552  -3.2547  -2.9418  -2.9414  -2.7821  -2.7816  -2.4180  -2.4177
    -2.1650  -2.1642  -1.9281  -1.9273  -0.2276  -0.2271   0.3782   0.3783
     0.7581   0.7585   1.1205   1.1206   1.3512   1.3519

          k = 0.3000 0.2787 0.0000 ( 34844 PWs)   bands (ev):

   -74.9806 -74.9806 -74.9587 -74.9587 -46.4257 -46.4257 -46.3690 -46.3690
   -36.8082 -36.8081 -36.7252 -36.7251 -36.5717 -36.5715 -36.4581 -36.4580
   -12.6260 -12.6257 -12.5098 -12.5095 -12.3059 -12.3058 -11.6943 -11.6943
    -6.3569  -6.3567  -5.7962  -5.7960  -5.6120  -5.6117  -5.2326  -5.2324
    -5.1236  -5.1226  -4.7739  -4.7734  -4.1562  -4.1561  -3.9875  -3.9874
    -3.3185  -3.3181  -2.8825  -2.8820  -2.7171  -2.7167  -2.3681  -2.3680
    -2.1677  -2.1669  -1.9124  -1.9117  -0.3277  -0.3272   0.3369   0.3370
     0.7365   0.7368   1.1222   1.1223   1.3001   1.3008

          k = 0.2750 0.2787 0.0000 ( 34872 PWs)   bands (ev):

   -74.9819 -74.9819 -74.9577 -74.9577 -46.4278 -46.4278 -46.3652 -46.3652
   -36.8073 -36.8072 -36.7164 -36.7163 -36.5789 -36.5788 -36.4526 -36.4525
   -12.7280 -12.7276 -12.6301 -12.6297 -12.3658 -12.3658 -11.7546 -11.7545
    -6.2253  -6.2251  -5.6572  -5.6570  -5.4873  -5.4869  -5.2491  -5.2484
    -5.0400  -5.0392  -4.8412  -4.8408  -4.0873  -4.0870  -3.9828  -3.9826
    -3.3482  -3.3479  -2.8378  -2.8373  -2.6562  -2.6559  -2.3418  -2.3417
    -2.1568  -2.1563  -1.8733  -1.8726  -0.4188  -0.4184   0.2910   0.2911
     0.7275   0.7277   1.0963   1.0966   1.2672   1.2677

          k = 0.2500 0.2787 0.0000 ( 34876 PWs)   bands (ev):

   -74.9831 -74.9831 -74.9568 -74.9568 -46.4298 -46.4298 -46.3616 -46.3616
   -36.8059 -36.8058 -36.7078 -36.7077 -36.5860 -36.5858 -36.4474 -36.4473
   -12.8284 -12.8279 -12.7453 -12.7448 -12.4242 -12.4242 -11.8157 -11.8157
    -6.1725  -6.1724  -5.5968  -5.5966  -5.3514  -5.3507  -5.1990  -5.1976
    -5.0192  -5.0179  -4.7732  -4.7730  -4.0805  -4.0801  -3.9156  -3.9152
    -3.3265  -3.3263  -2.7993  -2.7988  -2.6138  -2.6135  -2.3229  -2.3225
    -2.1450  -2.1446  -1.8138  -1.8134  -0.4975  -0.4972   0.2413   0.2414
     0.7319   0.7321   1.0296   1.0300   1.2822   1.2827

          k = 0.2250 0.2787 0.0000 ( 34856 PWs)   bands (ev):

   -74.9843 -74.9843 -74.9560 -74.9560 -46.4315 -46.4315 -46.3582 -46.3581
   -36.8041 -36.8039 -36.6995 -36.6994 -36.5929 -36.5927 -36.4425 -36.4424
   -12.9249 -12.9243 -12.8534 -12.8528 -12.4802 -12.4802 -11.8758 -11.8758
    -6.1984  -6.1983  -5.5961  -5.5960  -5.2249  -5.2238  -5.1430  -5.1415
    -4.9762  -4.9748  -4.6137  -4.6135  -4.0721  -4.0717  -3.8433  -3.8428
    -3.2558  -3.2557  -2.7567  -2.7562  -2.5988  -2.5985  -2.2968  -2.2963
    -2.1347  -2.1345  -1.7492  -1.7490  -0.5604  -0.5601   0.1873   0.1874
     0.7480   0.7482   0.9559   0.9564   1.3257   1.3263

          k = 0.2000 0.2787 0.0000 ( 34862 PWs)   bands (ev):

   -74.9853 -74.9853 -74.9552 -74.9552 -46.4330 -46.4330 -46.3550 -46.3550
   -36.8019 -36.8018 -36.6916 -36.6915 -36.5994 -36.5993 -36.4380 -36.4379
   -13.0156 -13.0149 -12.9530 -12.9523 -12.5329 -12.5329 -11.9332 -11.9332
    -6.2694  -6.2694  -5.6310  -5.6310  -5.2444  -5.2440  -5.0168  -5.0165
    -4.8081  -4.8071  -4.4884  -4.4881  -4.0290  -4.0287  -3.7573  -3.7569
    -3.1639  -3.1638  -2.7022  -2.7019  -2.6059  -2.6056  -2.2636  -2.2631
    -2.1187  -2.1185  -1.6964  -1.6963  -0.6041  -0.6039   0.1275   0.1276
     0.7564   0.7564   0.9154   0.9157   1.3858   1.3866

          k = 0.1750 0.2787 0.0000 ( 34874 PWs)   bands (ev):

   -74.9863 -74.9863 -74.9546 -74.9546 -46.4343 -46.4343 -46.3521 -46.3521
   -36.7996 -36.7995 -36.6842 -36.6841 -36.6057 -36.6056 -36.4339 -36.4338
   -13.0988 -13.0980 -13.0429 -13.0422 -12.5814 -12.5814 -11.9865 -11.9865
    -6.3573  -6.3572  -5.6838  -5.6838  -5.3106  -5.3104  -4.8557  -4.8554
    -4.6150  -4.6136  -4.4286  -4.4277  -3.9537  -3.9536  -3.6336  -3.6332
    -3.0808  -3.0807  -2.6440  -2.6437  -2.6137  -2.6132  -2.2327  -2.2323
    -2.0834  -2.0832  -1.6670  -1.6669  -0.6250  -0.6248   0.0599   0.0599
     0.7233   0.7234   0.9463   0.9464   1.4619   1.4630

          k = 0.1500 0.2787 0.0000 ( 34858 PWs)   bands (ev):

   -74.9871 -74.9871 -74.9540 -74.9540 -46.4354 -46.4354 -46.3495 -46.3495
   -36.7972 -36.7971 -36.6773 -36.6771 -36.6117 -36.6115 -36.4301 -36.4301
   -13.1732 -13.1725 -13.1224 -13.1217 -12.6249 -12.6249 -12.0347 -12.0347
    -6.4464  -6.4463  -5.7430  -5.7430  -5.3757  -5.3756  -4.6950  -4.6946
    -4.4929  -4.4917  -4.3469  -4.3458  -3.8743  -3.8740  -3.4819  -3.4815
    -3.0222  -3.0218  -2.6478  -2.6471  -2.5510  -2.5507  -2.2090  -2.2087
    -2.0191  -2.0187  -1.6649  -1.6649  -0.6184  -0.6183  -0.0180  -0.0179
     0.6700   0.6702   1.0221   1.0224   1.5565   1.5578

          k = 0.1250 0.2787 0.0000 ( 34854 PWs)   bands (ev):

   -74.9879 -74.9879 -74.9535 -74.9535 -46.4364 -46.4364 -46.3473 -46.3473
   -36.7949 -36.7949 -36.6709 -36.6708 -36.6173 -36.6171 -36.4269 -36.4269
   -13.2378 -13.2371 -13.1908 -13.1900 -12.6628 -12.6628 -12.0769 -12.0768
    -6.5288  -6.5288  -5.8014  -5.8014  -5.4340  -5.4339  -4.5522  -4.5512
    -4.4780  -4.4775  -4.1823  -4.1817  -3.7983  -3.7978  -3.3401  -3.3397
    -2.9950  -2.9942  -2.6480  -2.6468  -2.4810  -2.4808  -2.1793  -2.1791
    -1.9368  -1.9361  -1.6860  -1.6857  -0.5789  -0.5789  -0.1077  -0.1077
     0.6170   0.6172   1.1096   1.1100   1.6710   1.6722

          k = 0.1000 0.2787 0.0000 ( 34932 PWs)   bands (ev):

   -74.9885 -74.9885 -74.9531 -74.9531 -46.4371 -46.4371 -46.3454 -46.3454
   -36.7929 -36.7928 -36.6650 -36.6649 -36.6226 -36.6224 -36.4242 -36.4241
   -13.2917 -13.2910 -13.2474 -13.2467 -12.6945 -12.6945 -12.1122 -12.1122
    -6.6001  -6.6000  -5.8542  -5.8542  -5.4832  -5.4832  -4.5240  -4.5234
    -4.3862  -4.3859  -4.0211  -4.0206  -3.7237  -3.7230  -3.2414  -3.2410
    -3.0032  -3.0022  -2.6178  -2.6165  -2.4310  -2.4308  -2.1209  -2.1207
    -1.8625  -1.8613  -1.7168  -1.7160  -0.5039  -0.5037  -0.2086  -0.2085
     0.5685   0.5687   1.1895   1.1900   1.8015   1.8025

          k = 0.0750 0.2787 0.0000 ( 34900 PWs)   bands (ev):

   -74.9889 -74.9889 -74.9528 -74.9528 -46.4377 -46.4377 -46.3439 -46.3439
   -36.7911 -36.7910 -36.6597 -36.6596 -36.6274 -36.6273 -36.4220 -36.4220
   -13.3342 -13.3337 -13.2918 -13.2913 -12.7196 -12.7196 -12.1403 -12.1403
    -6.6575  -6.6575  -5.8982  -5.8982  -5.5224  -5.5224  -4.5420  -4.5417
    -4.2736  -4.2735  -3.8776  -3.8770  -3.6484  -3.6475  -3.1982  -3.1980
    -3.0433  -3.0425  -2.5580  -2.5569  -2.4082  -2.4078  -2.0308  -2.0304
    -1.8274  -1.8256  -1.7282  -1.7267  -0.3991  -0.3990  -0.3157  -0.3156
     0.5247   0.5249   1.2519   1.2524   1.9336   1.9343

          k = 0.0500 0.2787 0.0000 ( 34908 PWs)   bands (ev):

   -74.9893 -74.9893 -74.9526 -74.9526 -46.4381 -46.4381 -46.3429 -46.3429
   -36.7898 -36.7897 -36.6550 -36.6549 -36.6319 -36.6318 -36.4204 -36.4204
   -13.3648 -13.3645 -13.3238 -13.3234 -12.7378 -12.7378 -12.1606 -12.1606
    -6.6995  -6.6995  -5.9310  -5.9310  -5.5509  -5.5508  -4.5587  -4.5586
    -4.1900  -4.1899  -3.7563  -3.7556  -3.5689  -3.5679  -3.2050  -3.2043
    -3.1012  -3.1004  -2.4920  -2.4913  -2.3988  -2.3982  -1.9578  -1.9570
    -1.8095  -1.8082  -1.7112  -1.7099  -0.4206  -0.4205  -0.2818  -0.2817
     0.4860   0.4861   1.2947   1.2951   2.0249   2.0252

          k = 0.0250 0.2787 0.0000 ( 34924 PWs)   bands (ev):

   -74.9895 -74.9895 -74.9524 -74.9524 -46.4384 -46.4384 -46.3422 -46.3422
   -36.7889 -36.7889 -36.6513 -36.6512 -36.6355 -36.6354 -36.4195 -36.4195
   -13.3833 -13.3831 -13.3430 -13.3428 -12.7488 -12.7487 -12.1729 -12.1729
    -6.7251  -6.7251  -5.9513  -5.9513  -5.5681  -5.5680  -4.5696  -4.5695
    -4.1403  -4.1402  -3.6727  -3.6722  -3.4791  -3.4784  -3.2587  -3.2578
    -3.1467  -3.1460  -2.4524  -2.4522  -2.3829  -2.3822  -1.9518  -1.9510
    -1.7497  -1.7487  -1.6990  -1.6978  -0.5008  -0.5007  -0.1872  -0.1871
     0.4557   0.4558   1.3193   1.3195   2.0079   2.0080

          k = 0.0000 0.2787 0.0000 ( 34890 PWs)   bands (ev):

   -74.9896 -74.9896 -74.9524 -74.9524 -46.4385 -46.4385 -46.3420 -46.3420
   -36.7886 -36.7886 -36.6496 -36.6496 -36.6370 -36.6370 -36.4191 -36.4191
   -13.3894 -13.3894 -13.3494 -13.3494 -12.7524 -12.7524 -12.1770 -12.1770
    -6.7337  -6.7337  -5.9581  -5.9581  -5.5738  -5.5738  -4.5733  -4.5733
    -4.1239  -4.1239  -3.6432  -3.6432  -3.4093  -3.4093  -3.3188  -3.3188
    -3.1609  -3.1609  -2.4439  -2.4439  -2.3700  -2.3700  -1.9585  -1.9585
    -1.7094  -1.7094  -1.7025  -1.7025  -0.5321  -0.5321  -0.1495  -0.1495
     0.4434   0.4434   1.3274   1.3274   1.9887   1.9887

          k = 0.0000 0.2647 0.0000 ( 34902 PWs)   bands (ev):

   -74.9896 -74.9896 -74.9524 -74.9524 -46.4385 -46.4385 -46.3420 -46.3420
   -36.7887 -36.7887 -36.6496 -36.6496 -36.6370 -36.6370 -36.4191 -36.4191
   -13.4400 -13.4399 -13.2980 -13.2980 -12.7534 -12.7534 -12.1745 -12.1745
    -6.7390  -6.7390  -5.9588  -5.9586  -5.5679  -5.5678  -4.5930  -4.5930
    -4.1279  -4.1278  -3.6404  -3.6404  -3.4115  -3.4115  -3.3028  -3.3028
    -3.1627  -3.1626  -2.4487  -2.4486  -2.3675  -2.3674  -1.9502  -1.9501
    -1.7144  -1.7144  -1.6897  -1.6896  -0.5288  -0.5288  -0.1475  -0.1475
     0.4442   0.4443   1.3263   1.3263   1.9925   1.9926

          k = 0.0000 0.2508 0.0000 ( 34888 PWs)   bands (ev):

   -74.9896 -74.9896 -74.9524 -74.9524 -46.4385 -46.4385 -46.3420 -46.3420
   -36.7887 -36.7887 -36.6496 -36.6496 -36.6370 -36.6370 -36.4190 -36.4190
   -13.5047 -13.5047 -13.2309 -13.2309 -12.7560 -12.7560 -12.1670 -12.1670
    -6.7544  -6.7543  -5.9609  -5.9606  -5.5507  -5.5505  -4.6483  -4.6482
    -4.1395  -4.1394  -3.6324  -3.6324  -3.4151  -3.4150  -3.2629  -3.2628
    -3.1671  -3.1669  -2.4594  -2.4593  -2.3613  -2.3611  -1.9270  -1.9268
    -1.7145  -1.7144  -1.6665  -1.6665  -0.5192  -0.5191  -0.1415  -0.1415
     0.4467   0.4468   1.3233   1.3234   2.0030   2.0032

          k = 0.0000 0.2369 0.0000 ( 34876 PWs)   bands (ev):

   -74.9896 -74.9896 -74.9524 -74.9524 -46.4385 -46.4385 -46.3420 -46.3420
   -36.7889 -36.7889 -36.6496 -36.6496 -36.6370 -36.6370 -36.4188 -36.4188
   -13.5685 -13.5684 -13.1642 -13.1642 -12.7591 -12.7591 -12.1551 -12.1551
    -6.7782  -6.7781  -5.9654  -5.9650  -5.5239  -5.5236  -4.7299  -4.7298
    -4.1576  -4.1574  -3.6206  -3.6206  -3.4165  -3.4163  -3.2193  -3.2190
    -3.1668  -3.1661  -2.4693  -2.4691  -2.3529  -2.3525  -1.8931  -1.8928
    -1.7067  -1.7066  -1.6359  -1.6359  -0.5034  -0.5033  -0.1314  -0.1314
     0.4507   0.4508   1.3193   1.3194   2.0161   2.0164

          k = 0.0000 0.2229 0.0000 ( 34876 PWs)   bands (ev):

   -74.9896 -74.9896 -74.9524 -74.9524 -46.4385 -46.4385 -46.3419 -46.3419
   -36.7891 -36.7891 -36.6496 -36.6496 -36.6370 -36.6370 -36.4186 -36.4186
   -13.6302 -13.6301 -13.1007 -13.1006 -12.7604 -12.7604 -12.1394 -12.1394
    -6.8083  -6.8081  -5.9732  -5.9728  -5.4908  -5.4904  -4.8272  -4.8271
    -4.1803  -4.1801  -3.6078  -3.6077  -3.4137  -3.4135  -3.2097  -3.2094
    -3.1353  -3.1345  -2.4718  -2.4715  -2.3424  -2.3420  -1.8535  -1.8532
    -1.6905  -1.6903  -1.5983  -1.5983  -0.4819  -0.4818  -0.1172  -0.1172
     0.4561   0.4562   1.3154   1.3155   2.0233   2.0237

          k = 0.0000 0.2090 0.0000 ( 34870 PWs)   bands (ev):

   -74.9896 -74.9896 -74.9524 -74.9524 -46.4386 -46.4386 -46.3419 -46.3419
   -36.7894 -36.7894 -36.6496 -36.6496 -36.6370 -36.6370 -36.4183 -36.4183
   -13.6893 -13.6893 -13.0440 -13.0439 -12.7562 -12.7561 -12.1208 -12.1207
    -6.8423  -6.8421  -5.9851  -5.9846  -5.4569  -5.4566  -4.9296  -4.9295
    -4.2053  -4.2051  -3.5971  -3.5970  -3.4049  -3.4046  -3.2228  -3.2226
    -3.0931  -3.0925  -2.4626  -2.4623  -2.3295  -2.3290  -1.8133  -1.8130
    -1.6648  -1.6644  -1.5545  -1.5544  -0.4551  -0.4551  -0.0990  -0.0989
     0.4627   0.4628   1.3125   1.3126   2.0128   2.0132

          k = 0.0000 0.1951 0.0000 ( 34879 PWs)   bands (ev):

   -74.9896 -74.9896 -74.9524 -74.9524 -46.4386 -46.4386 -46.3419 -46.3419
   -36.7897 -36.7897 -36.6496 -36.6496 -36.6369 -36.6369 -36.4180 -36.4180
   -13.7457 -13.7457 -12.9995 -12.9994 -12.7411 -12.7411 -12.1000 -12.1000
    -6.8781  -6.8779  -6.0016  -6.0012  -5.4320  -5.4316  -5.0244  -5.0243
    -4.2300  -4.2297  -3.5913  -3.5911  -3.3882  -3.3879  -3.2414  -3.2414
    -3.0621  -3.0616  -2.4411  -2.4407  -2.3138  -2.3132  -1.7760  -1.7759
    -1.6289  -1.6282  -1.5054  -1.5054  -0.4237  -0.4236  -0.0767  -0.0767
     0.4703   0.4705   1.3107   1.3108   1.9829   1.9833

          k = 0.0000 0.1811 0.0000 ( 34885 PWs)   bands (ev):

   -74.9896 -74.9896 -74.9524 -74.9524 -46.4386 -46.4386 -46.3418 -46.3418
   -36.7900 -36.7900 -36.6496 -36.6496 -36.6369 -36.6369 -36.4176 -36.4176
   -13.7990 -13.7990 -12.9718 -12.9717 -12.7104 -12.7104 -12.0779 -12.0779
    -6.9141  -6.9139  -6.0235  -6.0231  -5.4320  -5.4317  -5.0947  -5.0946
    -4.2512  -4.2509  -3.5910  -3.5909  -3.3641  -3.3637  -3.2622  -3.2621
    -3.0449  -3.0443  -2.4104  -2.4099  -2.2954  -2.2947  -1.7434  -1.7434
    -1.5835  -1.5828  -1.4523  -1.4523  -0.3881  -0.3880  -0.0505  -0.0505
     0.4788   0.4789   1.3093   1.3095   1.9420   1.9423

          k = 0.0000 0.1672 0.0000 ( 34881 PWs)   bands (ev):

   -74.9896 -74.9896 -74.9524 -74.9524 -46.4387 -46.4387 -46.3418 -46.3418
   -36.7904 -36.7904 -36.6497 -36.6496 -36.6369 -36.6369 -36.4172 -36.4172
   -13.8490 -13.8490 -12.9602 -12.9602 -12.6647 -12.6647 -12.0553 -12.0553
    -6.9487  -6.9485  -6.0517  -6.0513  -5.4705  -5.4702  -5.1263  -5.1262
    -4.2657  -4.2655  -3.5955  -3.5953  -3.3362  -3.3358  -3.2814  -3.2812
    -3.0385  -3.0380  -2.3756  -2.3751  -2.2750  -2.2742  -1.7150  -1.7150
    -1.5318  -1.5310  -1.3965  -1.3965  -0.3485  -0.3484  -0.0207  -0.0207
     0.4880   0.4882   1.3069   1.3070   1.8961   1.8964

          k = 0.0000 0.1533 0.0000 ( 34891 PWs)   bands (ev):

   -74.9896 -74.9896 -74.9524 -74.9524 -46.4387 -46.4387 -46.3417 -46.3417
   -36.7908 -36.7908 -36.6497 -36.6497 -36.6369 -36.6369 -36.4168 -36.4168
   -13.8956 -13.8956 -12.9599 -12.9598 -12.6091 -12.6090 -12.0329 -12.0329
    -6.9808  -6.9806  -6.0875  -6.0872  -5.5378  -5.5376  -5.1288  -5.1287
    -4.2706  -4.2704  -3.6031  -3.6030  -3.3255  -3.3250  -3.2793  -3.2790
    -3.0388  -3.0384  -2.3413  -2.3408  -2.2539  -2.2532  -1.6897  -1.6896
    -1.4775  -1.4768  -1.3395  -1.3395  -0.3052  -0.3051   0.0123   0.0124
     0.4979   0.4981   1.3009   1.3010   1.8491   1.8494

          k = 0.0000 0.1393 0.0000 ( 34883 PWs)   bands (ev):

   -74.9896 -74.9896 -74.9524 -74.9524 -46.4388 -46.4388 -46.3417 -46.3417
   -36.7912 -36.7912 -36.6497 -36.6497 -36.6368 -36.6368 -36.4164 -36.4164
   -13.9386 -13.9386 -12.9657 -12.9657 -12.5487 -12.5487 -12.0114 -12.0114
    -7.0095  -7.0092  -6.1324  -6.1321  -5.6128  -5.6126  -5.1224  -5.1223
    -4.2636  -4.2635  -3.6125  -3.6124  -3.3427  -3.3425  -3.2460  -3.2459
    -3.0419  -3.0416  -2.3104  -2.3100  -2.2334  -2.2328  -1.6667  -1.6666
    -1.4244  -1.4238  -1.2831  -1.2830  -0.2582  -0.2581   0.0480   0.0480
     0.5085   0.5087   1.2887   1.2888   1.8039   1.8041

          k = 0.0000 0.1254 0.0000 ( 34877 PWs)   bands (ev):

   -74.9896 -74.9896 -74.9524 -74.9524 -46.4388 -46.4388 -46.3416 -46.3416
   -36.7916 -36.7916 -36.6497 -36.6497 -36.6368 -36.6368 -36.4159 -36.4159
   -13.9779 -13.9778 -12.9746 -12.9746 -12.4871 -12.4871 -11.9914 -11.9914
    -7.0339  -7.0337  -6.1871  -6.1869  -5.6820  -5.6819  -5.1189  -5.1188
    -4.2443  -4.2442  -3.6226  -3.6225  -3.3647  -3.3646  -3.2070  -3.2069
    -3.0440  -3.0438  -2.2867  -2.2866  -2.2123  -2.2120  -1.6457  -1.6457
    -1.3761  -1.3756  -1.2285  -1.2284  -0.2079  -0.2079   0.0854   0.0854
     0.5198   0.5200   1.2684   1.2685   1.7625   1.7627

          k = 0.0000 0.1115 0.0000 ( 34885 PWs)   bands (ev):

   -74.9896 -74.9896 -74.9524 -74.9524 -46.4389 -46.4389 -46.3416 -46.3416
   -36.7920 -36.7920 -36.6497 -36.6497 -36.6368 -36.6368 -36.4155 -36.4155
   -14.0133 -14.0133 -12.9847 -12.9847 -12.4265 -12.4265 -11.9734 -11.9734
    -7.0537  -7.0535  -6.2511  -6.2509  -5.7399  -5.7399  -5.1224  -5.1223
    -4.2141  -4.2140  -3.6327  -3.6327  -3.3866  -3.3865  -3.1704  -3.1703
    -3.0403  -3.0401  -2.2753  -2.2752  -2.1872  -2.1871  -1.6267  -1.6266
    -1.3356  -1.3353  -1.1767  -1.1767  -0.1551  -0.1551   0.1235   0.1235
     0.5316   0.5318   1.2397   1.2398   1.7261   1.7262

          k = 0.0000 0.0975 0.0000 ( 34911 PWs)   bands (ev):

   -74.9896 -74.9896 -74.9523 -74.9523 -46.4390 -46.4390 -46.3415 -46.3415
   -36.7924 -36.7924 -36.6497 -36.6497 -36.6367 -36.6367 -36.4151 -36.4151
   -14.0448 -14.0447 -12.9950 -12.9949 -12.3684 -12.3684 -11.9578 -11.9578
    -7.0684  -7.0682  -6.3217  -6.3216  -5.7855  -5.7855  -5.1326  -5.1326
    -4.1760  -4.1760  -3.6424  -3.6423  -3.4072  -3.4071  -3.1435  -3.1433
    -3.0234  -3.0232  -2.2782  -2.2779  -2.1569  -2.1566  -1.6096  -1.6096
    -1.3052  -1.3050  -1.1283  -1.1282  -0.1012  -0.1011   0.1608   0.1608
     0.5438   0.5440   1.2048   1.2048   1.6945   1.6946

          k = 0.0000 0.0836 0.0000 ( 34903 PWs)   bands (ev):

   -74.9896 -74.9896 -74.9523 -74.9523 -46.4390 -46.4390 -46.3415 -46.3415
   -36.7927 -36.7927 -36.6497 -36.6497 -36.6367 -36.6367 -36.4147 -36.4147
   -14.0722 -14.0722 -13.0047 -13.0046 -12.3142 -12.3142 -11.9451 -11.9451
    -7.0778  -7.0776  -6.3950  -6.3949  -5.8202  -5.8202  -5.1476  -5.1476
    -4.1340  -4.1340  -3.6512  -3.6512  -3.4259  -3.4259  -3.1306  -3.1304
    -2.9889  -2.9887  -2.2937  -2.2935  -2.1233  -2.1229  -1.5946  -1.5946
    -1.2859  -1.2859  -1.0836  -1.0835  -0.0480  -0.0479   0.1960   0.1960
     0.5561   0.5562   1.1670   1.1671   1.6673   1.6673

          k = 0.0000 0.0697 0.0000 ( 34925 PWs)   bands (ev):

   -74.9896 -74.9896 -74.9523 -74.9523 -46.4390 -46.4390 -46.3414 -46.3414
   -36.7930 -36.7930 -36.6497 -36.6497 -36.6367 -36.6367 -36.4144 -36.4144
   -14.0956 -14.0956 -13.0134 -13.0134 -12.2649 -12.2649 -11.9355 -11.9354
    -7.0821  -7.0819  -6.4669  -6.4668  -5.8462  -5.8462  -5.1649  -5.1649
    -4.0919  -4.0919  -3.6589  -3.6589  -3.4424  -3.4424  -3.1271  -3.1270
    -2.9414  -2.9412  -2.3198  -2.3197  -2.0888  -2.0884  -1.5817  -1.5817
    -1.2772  -1.2772  -1.0431  -1.0431   0.0021   0.0023   0.2275   0.2275
     0.5679   0.5680   1.1303   1.1303   1.6442   1.6442

          k = 0.0000 0.0557 0.0000 ( 34909 PWs)   bands (ev):

   -74.9896 -74.9896 -74.9523 -74.9523 -46.4391 -46.4391 -46.3414 -46.3414
   -36.7932 -36.7932 -36.6497 -36.6497 -36.6367 -36.6367 -36.4141 -36.4141
   -14.1148 -14.1147 -13.0209 -13.0208 -12.2217 -12.2217 -11.9288 -11.9288
    -7.0817  -7.0816  -6.5335  -6.5334  -5.8653  -5.8652  -5.1822  -5.1822
    -4.0532  -4.0531  -3.6654  -3.6654  -3.4563  -3.4563  -3.1276  -3.1275
    -2.8870  -2.8868  -2.3546  -2.3545  -2.0557  -2.0553  -1.5710  -1.5710
    -1.2771  -1.2770  -1.0079  -1.0079   0.0469   0.0470   0.2541   0.2542
     0.5786   0.5787   1.0976   1.0977   1.6251   1.6251

          k = 0.0000 0.0418 0.0000 ( 34905 PWs)   bands (ev):

   -74.9896 -74.9896 -74.9523 -74.9523 -46.4391 -46.4391 -46.3414 -46.3414
   -36.7935 -36.7935 -36.6497 -36.6497 -36.6367 -36.6367 -36.4139 -36.4139
   -14.1297 -14.1297 -13.0268 -13.0268 -12.1858 -12.1858 -11.9249 -11.9249
    -7.0778  -7.0777  -6.5912  -6.5911  -5.8789  -5.8788  -5.1976  -5.1976
    -4.0205  -4.0204  -3.6705  -3.6705  -3.4674  -3.4674  -3.1293  -3.1292
    -2.8298  -2.8296  -2.3958  -2.3958  -2.0262  -2.0259  -1.5626  -1.5625
    -1.2824  -1.2823  -0.9791  -0.9790   0.0841   0.0843   0.2751   0.2752
     0.5876   0.5877   1.0713   1.0713   1.6102   1.6102

          k = 0.0000 0.0279 0.0000 ( 34921 PWs)   bands (ev):

   -74.9896 -74.9896 -74.9523 -74.9523 -46.4391 -46.4391 -46.3414 -46.3414
   -36.7936 -36.7936 -36.6498 -36.6497 -36.6367 -36.6367 -36.4137 -36.4137
   -14.1404 -14.1404 -13.0312 -13.0312 -12.1585 -12.1585 -11.9233 -11.9233
    -7.0721  -7.0720  -6.6366  -6.6365  -5.8880  -5.8879  -5.2096  -5.2096
    -3.9958  -3.9958  -3.6743  -3.6742  -3.4754  -3.4754  -3.1309  -3.1309
    -2.7744  -2.7741  -2.4396  -2.4396  -2.0027  -2.0025  -1.5564  -1.5564
    -1.2897  -1.2896  -0.9576  -0.9576   0.1121   0.1122   0.2900   0.2901
     0.5942   0.5943   1.0523   1.0523   1.5995   1.5995

          k = 0.0000 0.0139 0.0000 ( 34893 PWs)   bands (ev):

   -74.9896 -74.9896 -74.9523 -74.9523 -46.4391 -46.4391 -46.3414 -46.3414
   -36.7937 -36.7937 -36.6498 -36.6497 -36.6367 -36.6367 -36.4136 -36.4136
   -14.1469 -14.1469 -13.0338 -13.0338 -12.1413 -12.1413 -11.9228 -11.9228
    -7.0670  -7.0669  -6.6659  -6.6658  -5.8932  -5.8932  -5.2172  -5.2172
    -3.9806  -3.9805  -3.6765  -3.6765  -3.4803  -3.4803  -3.1321  -3.1320
    -2.7286  -2.7285  -2.4783  -2.4782  -1.9874  -1.9873  -1.5526  -1.5526
    -1.2958  -1.2957  -0.9443  -0.9443   0.1296   0.1296   0.2989   0.2989
     0.5982   0.5983   1.0410   1.0410   1.5932   1.5932

          k = 0.0000 0.0000 0.0000 ( 34907 PWs)   bands (ev):

   -74.9896 -74.9896 -74.9523 -74.9523 -46.4391 -46.4391 -46.3414 -46.3414
   -36.7937 -36.7937 -36.6498 -36.6498 -36.6367 -36.6367 -36.4136 -36.4136
   -14.1490 -14.1490 -13.0347 -13.0347 -12.1354 -12.1354 -11.9228 -11.9228
    -7.0649  -7.0649  -6.6761  -6.6761  -5.8949  -5.8949  -5.2198  -5.2198
    -3.9754  -3.9754  -3.6772  -3.6772  -3.4819  -3.4819  -3.1325  -3.1325
    -2.7090  -2.7090  -2.4955  -2.4955  -1.9820  -1.9820  -1.5514  -1.5514
    -1.2981  -1.2981  -0.9399  -0.9399   0.1355   0.1355   0.3018   0.3018
     0.5996   0.5996   1.0373   1.0373   1.5911   1.5911

     Writing all to output data dir ./pwscf.save/

     init_run     :      5.12s CPU      5.63s WALL (       1 calls)
     electrons    :   1407.56s CPU   1447.95s WALL (       1 calls)

     Called by init_run:
     wfcinit      :      0.00s CPU      0.02s WALL (       1 calls)
     wfcinit:atom :      0.29s CPU      0.44s WALL (      81 calls)
     wfcinit:wfcr :     28.74s CPU     29.59s WALL (      81 calls)
     potinit      :      0.99s CPU      1.13s WALL (       1 calls)
     hinit0       :      1.64s CPU      1.68s WALL (       1 calls)

     Called by electrons:
     c_bands      :   1407.56s CPU   1447.95s WALL (       1 calls)
     v_of_rho     :      0.14s CPU      0.15s WALL (       1 calls)
     v_h          :      0.01s CPU      0.01s WALL (       1 calls)
     v_xc         :      0.13s CPU      0.14s WALL (       1 calls)
     newd         :      2.00s CPU      2.29s WALL (       1 calls)
     PAW_pot      :      0.18s CPU      0.19s WALL (       1 calls)

     Called by c_bands:
     init_us_2    :      0.18s CPU      0.22s WALL (      81 calls)
     init_us_2:cp :      0.18s CPU      0.22s WALL (      81 calls)
     cegterg      :   1367.76s CPU   1405.63s WALL (     448 calls)

     Called by sum_band:

     Called by *egterg:
     cdiaghg      :     33.66s CPU     34.07s WALL (    8484 calls)
     cegterg:over :     82.33s CPU     87.18s WALL (    8403 calls)
     cegterg:upda :     47.55s CPU     48.63s WALL (    8403 calls)
     cegterg:last :    123.69s CPU    125.14s WALL (    4182 calls)
     h_psi        :   1018.04s CPU   1045.07s WALL (    8932 calls)
     s_psi        :     66.59s CPU     67.41s WALL (    8932 calls)
     g_psi        :      3.51s CPU      3.57s WALL (    8403 calls)

     Called by h_psi:
     h_psi:calbec :     74.82s CPU     84.99s WALL (    8932 calls)
     vloc_psi     :    873.68s CPU    888.24s WALL (    8932 calls)
     add_vuspsi   :     63.37s CPU     64.26s WALL (    8932 calls)

     General routines
     calbec       :     74.71s CPU     84.94s WALL (    8932 calls)
     fft          :      0.70s CPU      0.73s WALL (      19 calls)
     ffts         :      0.58s CPU      0.59s WALL (       4 calls)
     fftw         :    699.57s CPU    710.51s WALL ( 1038508 calls)
     interpolate  :      0.62s CPU      0.64s WALL (       4 calls)
     davcio       :      0.02s CPU      1.23s WALL (     162 calls)

     Parallel routines

     PAW routines
     PAW_pot      :      0.18s CPU      0.19s WALL (       1 calls)

     PWSCF        :  23m35.65s CPU  24m46.12s WALL


   This run was terminated on:  16:15:42  27Jun2025            

=------------------------------------------------------------------------------=
   JOB DONE.
=------------------------------------------------------------------------------=
