
     Program BANDS v.7.1 starts on 27Jun2025 at 16:34:10 

     This program is part of the open-source Quantum ESPRESSO suite
     for quantum simulation of materials; please cite
         "P. Giannozzi et al., J. Phys.:Condens. Matter 21 395502 (2009);
         "P. Giannozzi et al., J. Phys.:Condens. Matter 29 465901 (2017);
         "P. Giannozzi et al., J. Chem. Phys. 152 154105 (2020);
          URL http://www.quantum-espresso.org", 
     in publications or presentations arising from this work. More details at
     http://www.quantum-espresso.org/quote

     Parallel version (MPI & OpenMP), running on      12 processor cores
     Number of MPI processes:                12
     Threads/MPI process:                     1

     MPI processes distributed on     1 nodes
     R & G space division:  proc/nbgrp/npool/nimage =      12
     482899 MiB available memory on the printing compute node when the environment starts


     Reading xml data from directory:

     ./WTe2.save/
     file Te.rel-pbe-n-kjpaw_psl.1.0.0.UPF: wavefunction(s)  5S 5P 5P renormalized
     file W.rel-pbe-spn-kjpaw_psl.1.0.0.UPF: wavefunction(s)  6S 5P 5D renormalized

     IMPORTANT: XC functional enforced from input :
     Exchange-correlation= PBE
                           (   1   4   3   4   0   0   0)
     Any further DFT definition will be discarded
     Please, verify this is what you really want


     Parallelization info
     --------------------
     sticks:   dense  smooth     PW     G-vecs:    dense   smooth      PW
     Min         311     125     35                92003    23287    3557
     Max         312     126     36                92026    23298    3582
     Sum        3735    1507    427              1104117   279489   42855

     Using Slab Decomposition


     negative rho (up, down):  2.337E-02 0.000E+00
     Reading collected, re-writing distributed wavefunctions
     high-symmetry point:  0.0000 0.0000-0.0583   x coordinate   0.0000
     high-symmetry point:  0.0000-0.2787-0.0583   x coordinate   0.2787
     high-symmetry point:  0.5000-0.2787-0.0583   x coordinate   0.7787
     high-symmetry point:  0.5000 0.0000-0.0583   x coordinate   1.0573
     high-symmetry point:  0.0000 0.0000-0.0583   x coordinate   1.5573

     Plottable bands (eV) written to file WTe2.dat.gnu
     Bands written to file WTe2.dat

 **************************************************************************

                    xk=(   0.00000,   0.00000,  -0.05833  )

     double point group C_s (m)    
     there are  4 classes and  2 irreducible representations
     the character table:

       E     -E    s     -s   
                              
G_3    1.00 -1.00  0.00  0.00
G_4    1.00 -1.00  0.00  0.00

     imaginary part

       E     -E    s     -s   
                              
G_3    0.00  0.00  1.00 -1.00
G_4    0.00  0.00 -1.00  1.00

     the symmetry operations in each class and the name of the first element:

     E             1
                                                                 
     -E           -1
                                                                 
     s             2
                                                                 
     -s           -2
                                                                 

     Band symmetry, C_s (m)     double point group:

     e(  1 -  2) =    -74.98964  eV     2   --> G_3            
     e(  1 -  2) =    -74.98964  eV     2   --> G_4            
     e(  3 -  4) =    -74.95233  eV     2   --> G_3            
     e(  3 -  4) =    -74.95233  eV     2   --> G_4            
     e(  5 -  6) =    -46.43913  eV     2   --> G_3            
     e(  5 -  6) =    -46.43913  eV     2   --> G_4            
     e(  7 -  8) =    -46.34135  eV     2   --> G_3            
     e(  7 -  8) =    -46.34135  eV     2   --> G_4            
     e(  9 - 10) =    -36.79373  eV     2   --> G_3            
     e(  9 - 10) =    -36.79373  eV     2   --> G_4            
     e( 11 - 12) =    -36.64975  eV     2   --> G_3            
     e( 11 - 12) =    -36.64975  eV     2   --> G_4            
     e( 13 - 14) =    -36.63666  eV     2   --> G_3            
     e( 13 - 14) =    -36.63666  eV     2   --> G_4            
     e( 15 - 16) =    -36.41361  eV     2   --> G_3            
     e( 15 - 16) =    -36.41361  eV     2   --> G_4            
     e( 17 - 18) =    -14.14903  eV     2   --> G_3            
     e( 17 - 18) =    -14.14903  eV     2   --> G_4            
     e( 19 - 20) =    -13.03472  eV     2   --> G_3            
     e( 19 - 20) =    -13.03472  eV     2   --> G_4            
     e( 21 - 22) =    -12.13542  eV     2   --> G_3            
     e( 21 - 22) =    -12.13542  eV     2   --> G_4            
     e( 23 - 24) =    -11.92284  eV     2   --> G_3            
     e( 23 - 24) =    -11.92284  eV     2   --> G_4            
     e( 25 - 26) =     -7.06492  eV     2   --> G_3            
     e( 25 - 26) =     -7.06492  eV     2   --> G_4            
     e( 27 - 28) =     -6.67605  eV     2   --> G_3            
     e( 27 - 28) =     -6.67605  eV     2   --> G_4            
     e( 29 - 30) =     -5.89489  eV     2   --> G_3            
     e( 29 - 30) =     -5.89489  eV     2   --> G_4            
     e( 31 - 32) =     -5.21977  eV     2   --> G_3            
     e( 31 - 32) =     -5.21977  eV     2   --> G_4            
     e( 33 - 34) =     -3.97537  eV     2   --> G_3            
     e( 33 - 34) =     -3.97537  eV     2   --> G_4            
     e( 35 - 36) =     -3.67723  eV     2   --> G_3            
     e( 35 - 36) =     -3.67723  eV     2   --> G_4            
     e( 37 - 38) =     -3.48191  eV     2   --> G_3            
     e( 37 - 38) =     -3.48191  eV     2   --> G_4            
     e( 39 - 40) =     -3.13246  eV     2   --> G_3            
     e( 39 - 40) =     -3.13246  eV     2   --> G_4            
     e( 41 - 42) =     -2.70897  eV     2   --> G_3            
     e( 41 - 42) =     -2.70897  eV     2   --> G_4            
     e( 43 - 44) =     -2.49549  eV     2   --> G_3            
     e( 43 - 44) =     -2.49549  eV     2   --> G_4            
     e( 45 - 46) =     -1.98205  eV     2   --> G_3            
     e( 45 - 46) =     -1.98205  eV     2   --> G_4            
     e( 47 - 48) =     -1.55137  eV     2   --> G_3            
     e( 47 - 48) =     -1.55137  eV     2   --> G_4            
     e( 49 - 50) =     -1.29808  eV     2   --> G_3            
     e( 49 - 50) =     -1.29808  eV     2   --> G_4            
     e( 51 - 52) =     -0.93985  eV     2   --> G_3            
     e( 51 - 52) =     -0.93985  eV     2   --> G_4            
     e( 53 - 54) =      0.13548  eV     2   --> G_3            
     e( 53 - 54) =      0.13548  eV     2   --> G_4            
     e( 55 - 56) =      0.30183  eV     2   --> G_3            
     e( 55 - 56) =      0.30183  eV     2   --> G_4            
     e( 57 - 58) =      0.59959  eV     2   --> G_3            
     e( 57 - 58) =      0.59959  eV     2   --> G_4            
     e( 59 - 60) =      1.03730  eV     2   --> G_3            
     e( 59 - 60) =      1.03730  eV     2   --> G_4            
     e( 61 - 62) =      1.59106  eV     2   --> G_3            
     e( 61 - 62) =      1.59106  eV     2   --> G_4            

 **************************************************************************

 **************************************************************************

                    xk=(   0.00000,  -0.01393,  -0.05833  )

     Band symmetry, C_s (m)     double point group:

     e(  1 -  2) =    -74.98964  eV     2   --> G_3            
     e(  1 -  2) =    -74.98964  eV     2   --> G_4            
     e(  3 -  4) =    -74.95233  eV     2   --> G_3            
     e(  3 -  4) =    -74.95233  eV     2   --> G_4            
     e(  5 -  6) =    -46.43913  eV     2   --> G_3            
     e(  5 -  6) =    -46.43913  eV     2   --> G_4            
     e(  7 -  8) =    -46.34135  eV     2   --> G_3            
     e(  7 -  8) =    -46.34135  eV     2   --> G_4            
     e(  9 - 10) =    -36.79370  eV     2   --> G_3            
     e(  9 - 10) =    -36.79370  eV     2   --> G_4            
     e( 11 - 12) =    -36.64975  eV     2   --> G_3            
     e( 11 - 12) =    -36.64975  eV     2   --> G_4            
     e( 13 - 14) =    -36.63666  eV     2   --> G_3            
     e( 13 - 14) =    -36.63666  eV     2   --> G_4            
     e( 15 - 16) =    -36.41364  eV     2   --> G_3            
     e( 15 - 16) =    -36.41364  eV     2   --> G_4            
     e( 17 - 18) =    -14.14689  eV     2   --> G_3            
     e( 17 - 18) =    -14.14689  eV     2   --> G_4            
     e( 19 - 20) =    -13.03384  eV     2   --> G_3            
     e( 19 - 20) =    -13.03384  eV     2   --> G_4            
     e( 21 - 22) =    -12.14133  eV     2   --> G_3            
     e( 21 - 22) =    -12.14133  eV     2   --> G_4            
     e( 23 - 24) =    -11.92285  eV     2   --> G_3            
     e( 23 - 24) =    -11.92285  eV     2   --> G_4            
     e( 25 - 26) =     -7.06699  eV     2   --> G_3            
     e( 25 - 26) =     -7.06699  eV     2   --> G_4            
     e( 27 - 28) =     -6.66587  eV     2   --> G_3            
     e( 27 - 28) =     -6.66587  eV     2   --> G_4            
     e( 29 - 30) =     -5.89319  eV     2   --> G_3            
     e( 29 - 30) =     -5.89319  eV     2   --> G_4            
     e( 31 - 32) =     -5.21718  eV     2   --> G_3            
     e( 31 - 32) =     -5.21718  eV     2   --> G_4            
     e( 33 - 34) =     -3.98055  eV     2   --> G_3            
     e( 33 - 34) =     -3.98055  eV     2   --> G_4            
     e( 35 - 36) =     -3.67649  eV     2   --> G_3            
     e( 35 - 36) =     -3.67649  eV     2   --> G_4            
     e( 37 - 38) =     -3.48028  eV     2   --> G_3            
     e( 37 - 38) =     -3.48028  eV     2   --> G_4            
     e( 39 - 40) =     -3.13207  eV     2   --> G_3            
     e( 39 - 40) =     -3.13207  eV     2   --> G_4            
     e( 41 - 41) =     -2.72862  eV     1   --> G_4            
     e( 42 - 42) =     -2.72848  eV     1   --> G_3            
     e( 43 - 44) =     -2.47829  eV     2   --> G_3            
     e( 43 - 44) =     -2.47829  eV     2   --> G_4            
     e( 45 - 45) =     -1.98740  eV     1   --> G_3            
     e( 46 - 46) =     -1.98728  eV     1   --> G_4            
     e( 47 - 48) =     -1.55264  eV     2   --> G_3            
     e( 47 - 48) =     -1.55264  eV     2   --> G_4            
     e( 49 - 50) =     -1.29579  eV     2   --> G_3            
     e( 49 - 50) =     -1.29579  eV     2   --> G_4            
     e( 51 - 52) =     -0.94434  eV     2   --> G_3            
     e( 51 - 52) =     -0.94434  eV     2   --> G_4            
     e( 53 - 54) =      0.12955  eV     2   --> G_3            
     e( 53 - 54) =      0.12955  eV     2   --> G_4            
     e( 55 - 56) =      0.29889  eV     2   --> G_3            
     e( 55 - 56) =      0.29889  eV     2   --> G_4            
     e( 57 - 58) =      0.59824  eV     2   --> G_3            
     e( 57 - 58) =      0.59824  eV     2   --> G_4            
     e( 59 - 60) =      1.04103  eV     2   --> G_3            
     e( 59 - 60) =      1.04103  eV     2   --> G_4            
     e( 61 - 62) =      1.59317  eV     2   --> G_3            
     e( 61 - 62) =      1.59317  eV     2   --> G_4            

 **************************************************************************

 **************************************************************************

                    xk=(   0.00000,  -0.02787,  -0.05833  )

     Band symmetry, C_s (m)     double point group:

     e(  1 -  2) =    -74.98964  eV     2   --> G_3            
     e(  1 -  2) =    -74.98964  eV     2   --> G_4            
     e(  3 -  4) =    -74.95233  eV     2   --> G_3            
     e(  3 -  4) =    -74.95233  eV     2   --> G_4            
     e(  5 -  6) =    -46.43911  eV     2   --> G_3            
     e(  5 -  6) =    -46.43911  eV     2   --> G_4            
     e(  7 -  8) =    -46.34136  eV     2   --> G_3            
     e(  7 -  8) =    -46.34136  eV     2   --> G_4            
     e(  9 - 10) =    -36.79360  eV     2   --> G_3            
     e(  9 - 10) =    -36.79360  eV     2   --> G_4            
     e( 11 - 12) =    -36.64975  eV     2   --> G_3            
     e( 11 - 12) =    -36.64975  eV     2   --> G_4            
     e( 13 - 14) =    -36.63667  eV     2   --> G_3            
     e( 13 - 14) =    -36.63667  eV     2   --> G_4            
     e( 15 - 16) =    -36.41374  eV     2   --> G_3            
     e( 15 - 16) =    -36.41374  eV     2   --> G_4            
     e( 17 - 18) =    -14.14044  eV     2   --> G_3            
     e( 17 - 18) =    -14.14044  eV     2   --> G_4            
     e( 19 - 20) =    -13.03119  eV     2   --> G_3            
     e( 19 - 20) =    -13.03119  eV     2   --> G_4            
     e( 21 - 22) =    -12.15853  eV     2   --> G_3            
     e( 21 - 22) =    -12.15853  eV     2   --> G_4            
     e( 23 - 24) =    -11.92325  eV     2   --> G_3            
     e( 23 - 24) =    -11.92325  eV     2   --> G_4            
     e( 25 - 26) =     -7.07210  eV     2   --> G_3            
     e( 25 - 26) =     -7.07210  eV     2   --> G_4            
     e( 27 - 28) =     -6.63656  eV     2   --> G_3            
     e( 27 - 28) =     -6.63656  eV     2   --> G_4            
     e( 29 - 30) =     -5.88796  eV     2   --> G_3            
     e( 29 - 30) =     -5.88796  eV     2   --> G_4            
     e( 31 - 32) =     -5.20959  eV     2   --> G_3            
     e( 31 - 32) =     -5.20959  eV     2   --> G_4            
     e( 33 - 34) =     -3.99584  eV     2   --> G_3            
     e( 33 - 34) =     -3.99584  eV     2   --> G_4            
     e( 35 - 36) =     -3.67425  eV     2   --> G_3            
     e( 35 - 36) =     -3.67425  eV     2   --> G_4            
     e( 37 - 38) =     -3.47541  eV     2   --> G_3            
     e( 37 - 38) =     -3.47541  eV     2   --> G_4            
     e( 39 - 40) =     -3.13093  eV     2   --> G_3            
     e( 39 - 40) =     -3.13093  eV     2   --> G_4            
     e( 41 - 41) =     -2.77436  eV     1   --> G_4            
     e( 42 - 42) =     -2.77414  eV     1   --> G_3            
     e( 43 - 44) =     -2.43963  eV     2   --> G_3            
     e( 43 - 44) =     -2.43963  eV     2   --> G_4            
     e( 45 - 45) =     -2.00268  eV     1   --> G_3            
     e( 46 - 46) =     -2.00245  eV     1   --> G_4            
     e( 47 - 48) =     -1.55640  eV     2   --> G_3            
     e( 47 - 48) =     -1.55640  eV     2   --> G_4            
     e( 49 - 49) =     -1.28975  eV     1   --> G_4            
     e( 50 - 50) =     -1.28963  eV     1   --> G_3            
     e( 51 - 52) =     -0.95761  eV     2   --> G_3            
     e( 51 - 52) =     -0.95761  eV     2   --> G_4            
     e( 53 - 53) =      0.11215  eV     1   --> G_3            
     e( 54 - 54) =      0.11225  eV     1   --> G_4            
     e( 55 - 56) =      0.29004  eV     2   --> G_3            
     e( 55 - 56) =      0.29004  eV     2   --> G_4            
     e( 57 - 58) =      0.59422  eV     2   --> G_3            
     e( 57 - 58) =      0.59422  eV     2   --> G_4            
     e( 59 - 60) =      1.05233  eV     2   --> G_3            
     e( 59 - 60) =      1.05233  eV     2   --> G_4            
     e( 61 - 62) =      1.59954  eV     2   --> G_3            
     e( 61 - 62) =      1.59954  eV     2   --> G_4            

 **************************************************************************

 **************************************************************************

                    xk=(   0.00000,  -0.04180,  -0.05833  )

     Band symmetry, C_s (m)     double point group:

     e(  1 -  2) =    -74.98963  eV     2   --> G_3            
     e(  1 -  2) =    -74.98963  eV     2   --> G_4            
     e(  3 -  4) =    -74.95233  eV     2   --> G_3            
     e(  3 -  4) =    -74.95233  eV     2   --> G_4            
     e(  5 -  6) =    -46.43909  eV     2   --> G_3            
     e(  5 -  6) =    -46.43909  eV     2   --> G_4            
     e(  7 -  8) =    -46.34139  eV     2   --> G_3            
     e(  7 -  8) =    -46.34139  eV     2   --> G_4            
     e(  9 - 10) =    -36.79345  eV     2   --> G_3            
     e(  9 - 10) =    -36.79345  eV     2   --> G_4            
     e( 11 - 12) =    -36.64975  eV     2   --> G_3            
     e( 11 - 12) =    -36.64975  eV     2   --> G_4            
     e( 13 - 14) =    -36.63668  eV     2   --> G_3            
     e( 13 - 14) =    -36.63668  eV     2   --> G_4            
     e( 15 - 16) =    -36.41390  eV     2   --> G_3            
     e( 15 - 16) =    -36.41390  eV     2   --> G_4            
     e( 17 - 18) =    -14.12972  eV     2   --> G_3            
     e( 17 - 18) =    -14.12972  eV     2   --> G_4            
     e( 19 - 20) =    -13.02683  eV     2   --> G_3            
     e( 19 - 20) =    -13.02683  eV     2   --> G_4            
     e( 21 - 22) =    -12.18581  eV     2   --> G_3            
     e( 21 - 22) =    -12.18581  eV     2   --> G_4            
     e( 23 - 24) =    -11.92495  eV     2   --> G_3            
     e( 23 - 24) =    -11.92495  eV     2   --> G_4            
     e( 25 - 25) =     -7.07783  eV     1   --> G_3            
     e( 26 - 26) =     -7.07770  eV     1   --> G_4            
     e( 27 - 28) =     -6.59123  eV     2   --> G_3            
     e( 27 - 28) =     -6.59123  eV     2   --> G_4            
     e( 29 - 30) =     -5.87885  eV     2   --> G_3            
     e( 29 - 30) =     -5.87885  eV     2   --> G_4            
     e( 31 - 32) =     -5.19761  eV     2   --> G_3            
     e( 31 - 32) =     -5.19761  eV     2   --> G_4            
     e( 33 - 34) =     -4.02050  eV     2   --> G_3            
     e( 33 - 34) =     -4.02050  eV     2   --> G_4            
     e( 35 - 36) =     -3.67055  eV     2   --> G_3            
     e( 35 - 36) =     -3.67055  eV     2   --> G_4            
     e( 37 - 38) =     -3.46738  eV     2   --> G_3            
     e( 37 - 38) =     -3.46738  eV     2   --> G_4            
     e( 39 - 40) =     -3.12927  eV     2   --> G_3            
     e( 39 - 40) =     -3.12927  eV     2   --> G_4            
     e( 41 - 41) =     -2.82983  eV     1   --> G_4            
     e( 42 - 42) =     -2.82959  eV     1   --> G_3            
     e( 43 - 44) =     -2.39580  eV     2   --> G_3            
     e( 43 - 44) =     -2.39580  eV     2   --> G_4            
     e( 45 - 45) =     -2.02619  eV     1   --> G_3            
     e( 46 - 46) =     -2.02588  eV     1   --> G_4            
     e( 47 - 48) =     -1.56256  eV     2   --> G_3            
     e( 47 - 48) =     -1.56256  eV     2   --> G_4            
     e( 49 - 49) =     -1.28241  eV     1   --> G_4            
     e( 50 - 50) =     -1.28228  eV     1   --> G_3            
     e( 51 - 52) =     -0.97909  eV     2   --> G_3            
     e( 51 - 52) =     -0.97909  eV     2   --> G_4            
     e( 53 - 53) =      0.08414  eV     1   --> G_3            
     e( 54 - 54) =      0.08426  eV     1   --> G_4            
     e( 55 - 56) =      0.27512  eV     2   --> G_3            
     e( 55 - 56) =      0.27512  eV     2   --> G_4            
     e( 57 - 58) =      0.58758  eV     2   --> G_3            
     e( 57 - 58) =      0.58758  eV     2   --> G_4            
     e( 59 - 60) =      1.07129  eV     2   --> G_3            
     e( 59 - 60) =      1.07129  eV     2   --> G_4            
     e( 61 - 62) =      1.61020  eV     2   --> G_3            
     e( 61 - 62) =      1.61020  eV     2   --> G_4            

 **************************************************************************

 **************************************************************************

                    xk=(   0.00000,  -0.05573,  -0.05833  )

     Band symmetry, C_s (m)     double point group:

     e(  1 -  2) =    -74.98963  eV     2   --> G_3            
     e(  1 -  2) =    -74.98963  eV     2   --> G_4            
     e(  3 -  4) =    -74.95234  eV     2   --> G_3            
     e(  3 -  4) =    -74.95234  eV     2   --> G_4            
     e(  5 -  6) =    -46.43907  eV     2   --> G_3            
     e(  5 -  6) =    -46.43907  eV     2   --> G_4            
     e(  7 -  8) =    -46.34141  eV     2   --> G_3            
     e(  7 -  8) =    -46.34141  eV     2   --> G_4            
     e(  9 - 10) =    -36.79325  eV     2   --> G_3            
     e(  9 - 10) =    -36.79325  eV     2   --> G_4            
     e( 11 - 12) =    -36.64974  eV     2   --> G_3            
     e( 11 - 12) =    -36.64974  eV     2   --> G_4            
     e( 13 - 14) =    -36.63669  eV     2   --> G_3            
     e( 13 - 14) =    -36.63669  eV     2   --> G_4            
     e( 15 - 16) =    -36.41413  eV     2   --> G_3            
     e( 15 - 16) =    -36.41413  eV     2   --> G_4            
     e( 17 - 18) =    -14.11475  eV     2   --> G_3            
     e( 17 - 18) =    -14.11475  eV     2   --> G_4            
     e( 19 - 20) =    -13.02086  eV     2   --> G_3            
     e( 19 - 20) =    -13.02086  eV     2   --> G_4            
     e( 21 - 22) =    -12.22172  eV     2   --> G_3            
     e( 21 - 22) =    -12.22172  eV     2   --> G_4            
     e( 23 - 24) =    -11.92881  eV     2   --> G_3            
     e( 23 - 24) =    -11.92881  eV     2   --> G_4            
     e( 25 - 25) =     -7.08174  eV     1   --> G_3            
     e( 26 - 26) =     -7.08159  eV     1   --> G_4            
     e( 27 - 28) =     -6.53348  eV     2   --> G_3            
     e( 27 - 28) =     -6.53348  eV     2   --> G_4            
     e( 29 - 30) =     -5.86526  eV     2   --> G_3            
     e( 29 - 30) =     -5.86526  eV     2   --> G_4            
     e( 31 - 32) =     -5.18224  eV     2   --> G_3            
     e( 31 - 32) =     -5.18224  eV     2   --> G_4            
     e( 33 - 34) =     -4.05319  eV     2   --> G_3            
     e( 33 - 34) =     -4.05319  eV     2   --> G_4            
     e( 35 - 36) =     -3.66542  eV     2   --> G_3            
     e( 35 - 36) =     -3.66542  eV     2   --> G_4            
     e( 37 - 38) =     -3.45632  eV     2   --> G_3            
     e( 37 - 38) =     -3.45632  eV     2   --> G_4            
     e( 39 - 39) =     -3.12761  eV     1   --> G_4            
     e( 40 - 40) =     -3.12748  eV     1   --> G_3            
     e( 41 - 41) =     -2.88699  eV     1   --> G_4            
     e( 42 - 42) =     -2.88676  eV     1   --> G_3            
     e( 43 - 43) =     -2.35464  eV     1   --> G_4            
     e( 44 - 44) =     -2.35452  eV     1   --> G_3            
     e( 45 - 45) =     -2.05567  eV     1   --> G_3            
     e( 46 - 46) =     -2.05530  eV     1   --> G_4            
     e( 47 - 48) =     -1.57103  eV     2   --> G_3            
     e( 47 - 48) =     -1.57103  eV     2   --> G_4            
     e( 49 - 49) =     -1.27709  eV     1   --> G_4            
     e( 50 - 50) =     -1.27698  eV     1   --> G_3            
     e( 51 - 52) =     -1.00795  eV     2   --> G_3            
     e( 51 - 52) =     -1.00795  eV     2   --> G_4            
     e( 53 - 53) =      0.04687  eV     1   --> G_3            
     e( 54 - 54) =      0.04701  eV     1   --> G_4            
     e( 55 - 56) =      0.25415  eV     2   --> G_3            
     e( 55 - 56) =      0.25415  eV     2   --> G_4            
     e( 57 - 57) =      0.57861  eV     1   --> G_3            
     e( 58 - 58) =      0.57873  eV     1   --> G_4            
     e( 59 - 60) =      1.09763  eV     2   --> G_3            
     e( 59 - 60) =      1.09763  eV     2   --> G_4            
     e( 61 - 62) =      1.62512  eV     2   --> G_3            
     e( 61 - 62) =      1.62512  eV     2   --> G_4            

 **************************************************************************

 **************************************************************************

                    xk=(   0.00000,  -0.06967,  -0.05833  )

     Band symmetry, C_s (m)     double point group:

     e(  1 -  2) =    -74.98963  eV     2   --> G_3            
     e(  1 -  2) =    -74.98963  eV     2   --> G_4            
     e(  3 -  4) =    -74.95234  eV     2   --> G_3            
     e(  3 -  4) =    -74.95234  eV     2   --> G_4            
     e(  5 -  6) =    -46.43903  eV     2   --> G_3            
     e(  5 -  6) =    -46.43903  eV     2   --> G_4            
     e(  7 -  8) =    -46.34144  eV     2   --> G_3            
     e(  7 -  8) =    -46.34144  eV     2   --> G_4            
     e(  9 - 10) =    -36.79299  eV     2   --> G_3            
     e(  9 - 10) =    -36.79299  eV     2   --> G_4            
     e( 11 - 12) =    -36.64974  eV     2   --> G_3            
     e( 11 - 12) =    -36.64974  eV     2   --> G_4            
     e( 13 - 14) =    -36.63671  eV     2   --> G_3            
     e( 13 - 14) =    -36.63671  eV     2   --> G_4            
     e( 15 - 16) =    -36.41441  eV     2   --> G_3            
     e( 15 - 16) =    -36.41441  eV     2   --> G_4            
     e( 17 - 18) =    -14.09557  eV     2   --> G_3            
     e( 17 - 18) =    -14.09557  eV     2   --> G_4            
     e( 19 - 20) =    -13.01341  eV     2   --> G_3            
     e( 19 - 20) =    -13.01341  eV     2   --> G_4            
     e( 21 - 22) =    -12.26493  eV     2   --> G_3            
     e( 21 - 22) =    -12.26493  eV     2   --> G_4            
     e( 23 - 24) =    -11.93545  eV     2   --> G_3            
     e( 23 - 24) =    -11.93545  eV     2   --> G_4            
     e( 25 - 25) =     -7.08208  eV     1   --> G_3            
     e( 26 - 26) =     -7.08191  eV     1   --> G_4            
     e( 27 - 27) =     -6.46689  eV     1   --> G_4            
     e( 28 - 28) =     -6.46678  eV     1   --> G_3            
     e( 29 - 30) =     -5.84620  eV     2   --> G_3            
     e( 29 - 30) =     -5.84620  eV     2   --> G_4            
     e( 31 - 32) =     -5.16494  eV     2   --> G_3            
     e( 31 - 32) =     -5.16494  eV     2   --> G_4            
     e( 33 - 34) =     -4.09192  eV     2   --> G_3            
     e( 33 - 34) =     -4.09192  eV     2   --> G_4            
     e( 35 - 36) =     -3.65894  eV     2   --> G_3            
     e( 35 - 36) =     -3.65894  eV     2   --> G_4            
     e( 37 - 38) =     -3.44242  eV     2   --> G_3            
     e( 37 - 38) =     -3.44242  eV     2   --> G_4            
     e( 39 - 39) =     -3.12713  eV     1   --> G_4            
     e( 40 - 40) =     -3.12697  eV     1   --> G_3            
     e( 41 - 41) =     -2.94143  eV     1   --> G_4            
     e( 42 - 42) =     -2.94122  eV     1   --> G_3            
     e( 43 - 43) =     -2.31985  eV     1   --> G_4            
     e( 44 - 44) =     -2.31965  eV     1   --> G_3            
     e( 45 - 45) =     -2.08878  eV     1   --> G_3            
     e( 46 - 46) =     -2.08838  eV     1   --> G_4            
     e( 47 - 48) =     -1.58174  eV     2   --> G_3            
     e( 47 - 48) =     -1.58174  eV     2   --> G_4            
     e( 49 - 50) =     -1.27724  eV     2   --> G_3            
     e( 49 - 50) =     -1.27724  eV     2   --> G_4            
     e( 51 - 52) =     -1.04313  eV     2   --> G_3            
     e( 51 - 52) =     -1.04313  eV     2   --> G_4            
     e( 53 - 53) =      0.00213  eV     1   --> G_3            
     e( 54 - 54) =      0.00225  eV     1   --> G_4            
     e( 55 - 56) =      0.22749  eV     2   --> G_3            
     e( 55 - 56) =      0.22749  eV     2   --> G_4            
     e( 57 - 57) =      0.56787  eV     1   --> G_3            
     e( 58 - 58) =      0.56801  eV     1   --> G_4            
     e( 59 - 60) =      1.13026  eV     2   --> G_3            
     e( 59 - 60) =      1.13026  eV     2   --> G_4            
     e( 61 - 62) =      1.64419  eV     2   --> G_3            
     e( 61 - 62) =      1.64419  eV     2   --> G_4            

 **************************************************************************

 **************************************************************************

                    xk=(   0.00000,  -0.08360,  -0.05833  )

     Band symmetry, C_s (m)     double point group:

     e(  1 -  2) =    -74.98962  eV     2   --> G_3            
     e(  1 -  2) =    -74.98962  eV     2   --> G_4            
     e(  3 -  4) =    -74.95234  eV     2   --> G_3            
     e(  3 -  4) =    -74.95234  eV     2   --> G_4            
     e(  5 -  6) =    -46.43899  eV     2   --> G_3            
     e(  5 -  6) =    -46.43899  eV     2   --> G_4            
     e(  7 -  8) =    -46.34148  eV     2   --> G_3            
     e(  7 -  8) =    -46.34148  eV     2   --> G_4            
     e(  9 - 10) =    -36.79269  eV     2   --> G_3            
     e(  9 - 10) =    -36.79269  eV     2   --> G_4            
     e( 11 - 12) =    -36.64973  eV     2   --> G_3            
     e( 11 - 12) =    -36.64973  eV     2   --> G_4            
     e( 13 - 14) =    -36.63673  eV     2   --> G_3            
     e( 13 - 14) =    -36.63673  eV     2   --> G_4            
     e( 15 - 16) =    -36.41474  eV     2   --> G_3            
     e( 15 - 16) =    -36.41474  eV     2   --> G_4            
     e( 17 - 18) =    -14.07222  eV     2   --> G_3            
     e( 17 - 18) =    -14.07222  eV     2   --> G_4            
     e( 19 - 20) =    -13.00468  eV     2   --> G_3            
     e( 19 - 20) =    -13.00468  eV     2   --> G_4            
     e( 21 - 22) =    -12.31421  eV     2   --> G_3            
     e( 21 - 22) =    -12.31421  eV     2   --> G_4            
     e( 23 - 24) =    -11.94513  eV     2   --> G_3            
     e( 23 - 24) =    -11.94513  eV     2   --> G_4            
     e( 25 - 25) =     -7.07778  eV     1   --> G_3            
     e( 26 - 26) =     -7.07760  eV     1   --> G_4            
     e( 27 - 27) =     -6.39503  eV     1   --> G_4            
     e( 28 - 28) =     -6.39489  eV     1   --> G_3            
     e( 29 - 30) =     -5.82025  eV     2   --> G_3            
     e( 29 - 30) =     -5.82025  eV     2   --> G_4            
     e( 31 - 32) =     -5.14763  eV     2   --> G_3            
     e( 31 - 32) =     -5.14763  eV     2   --> G_4            
     e( 33 - 34) =     -4.13399  eV     2   --> G_3            
     e( 33 - 34) =     -4.13399  eV     2   --> G_4            
     e( 35 - 36) =     -3.65121  eV     2   --> G_3            
     e( 35 - 36) =     -3.65121  eV     2   --> G_4            
     e( 37 - 38) =     -3.42593  eV     2   --> G_3            
     e( 37 - 38) =     -3.42593  eV     2   --> G_4            
     e( 39 - 39) =     -3.13059  eV     1   --> G_4            
     e( 40 - 40) =     -3.13041  eV     1   --> G_3            
     e( 41 - 41) =     -2.98894  eV     1   --> G_4            
     e( 42 - 42) =     -2.98875  eV     1   --> G_3            
     e( 43 - 43) =     -2.29374  eV     1   --> G_4            
     e( 44 - 44) =     -2.29348  eV     1   --> G_3            
     e( 45 - 45) =     -2.12328  eV     1   --> G_3            
     e( 46 - 46) =     -2.12289  eV     1   --> G_4            
     e( 47 - 48) =     -1.59462  eV     2   --> G_3            
     e( 47 - 48) =     -1.59462  eV     2   --> G_4            
     e( 49 - 50) =     -1.28591  eV     2   --> G_3            
     e( 49 - 50) =     -1.28591  eV     2   --> G_4            
     e( 51 - 52) =     -1.08356  eV     2   --> G_3            
     e( 51 - 52) =     -1.08356  eV     2   --> G_4            
     e( 53 - 53) =     -0.04799  eV     1   --> G_3            
     e( 54 - 54) =     -0.04789  eV     1   --> G_4            
     e( 55 - 56) =      0.19597  eV     2   --> G_3            
     e( 55 - 56) =      0.19597  eV     2   --> G_4            
     e( 57 - 57) =      0.55605  eV     1   --> G_3            
     e( 58 - 58) =      0.55621  eV     1   --> G_4            
     e( 59 - 60) =      1.16704  eV     2   --> G_3            
     e( 59 - 60) =      1.16704  eV     2   --> G_4            
     e( 61 - 62) =      1.66730  eV     2   --> G_3            
     e( 61 - 62) =      1.66730  eV     2   --> G_4            

 **************************************************************************

 **************************************************************************

                    xk=(   0.00000,  -0.09753,  -0.05833  )

     Band symmetry, C_s (m)     double point group:

     e(  1 -  2) =    -74.98962  eV     2   --> G_3            
     e(  1 -  2) =    -74.98962  eV     2   --> G_4            
     e(  3 -  4) =    -74.95235  eV     2   --> G_3            
     e(  3 -  4) =    -74.95235  eV     2   --> G_4            
     e(  5 -  6) =    -46.43895  eV     2   --> G_3            
     e(  5 -  6) =    -46.43895  eV     2   --> G_4            
     e(  7 -  8) =    -46.34153  eV     2   --> G_3            
     e(  7 -  8) =    -46.34153  eV     2   --> G_4            
     e(  9 - 10) =    -36.79235  eV     2   --> G_3            
     e(  9 - 10) =    -36.79235  eV     2   --> G_4            
     e( 11 - 12) =    -36.64972  eV     2   --> G_3            
     e( 11 - 12) =    -36.64972  eV     2   --> G_4            
     e( 13 - 14) =    -36.63675  eV     2   --> G_3            
     e( 13 - 14) =    -36.63675  eV     2   --> G_4            
     e( 15 - 16) =    -36.41510  eV     2   --> G_3            
     e( 15 - 16) =    -36.41510  eV     2   --> G_4            
     e( 17 - 18) =    -14.04477  eV     2   --> G_3            
     e( 17 - 18) =    -14.04477  eV     2   --> G_4            
     e( 19 - 20) =    -12.99498  eV     2   --> G_3            
     e( 19 - 20) =    -12.99498  eV     2   --> G_4            
     e( 21 - 22) =    -12.36844  eV     2   --> G_3            
     e( 21 - 22) =    -12.36844  eV     2   --> G_4            
     e( 23 - 24) =    -11.95784  eV     2   --> G_3            
     e( 23 - 24) =    -11.95784  eV     2   --> G_4            
     e( 25 - 25) =     -7.06836  eV     1   --> G_3            
     e( 26 - 26) =     -7.06817  eV     1   --> G_4            
     e( 27 - 27) =     -6.32173  eV     1   --> G_4            
     e( 28 - 28) =     -6.32156  eV     1   --> G_3            
     e( 29 - 30) =     -5.78552  eV     2   --> G_3            
     e( 29 - 30) =     -5.78552  eV     2   --> G_4            
     e( 31 - 32) =     -5.13263  eV     2   --> G_3            
     e( 31 - 32) =     -5.13263  eV     2   --> G_4            
     e( 33 - 34) =     -4.17599  eV     2   --> G_3            
     e( 33 - 34) =     -4.17599  eV     2   --> G_4            
     e( 35 - 36) =     -3.64240  eV     2   --> G_3            
     e( 35 - 36) =     -3.64240  eV     2   --> G_4            
     e( 37 - 38) =     -3.40718  eV     2   --> G_3            
     e( 37 - 38) =     -3.40718  eV     2   --> G_4            
     e( 39 - 39) =     -3.14353  eV     1   --> G_4            
     e( 40 - 40) =     -3.14335  eV     1   --> G_3            
     e( 41 - 41) =     -3.02342  eV     1   --> G_4            
     e( 42 - 42) =     -3.02323  eV     1   --> G_3            
     e( 43 - 43) =     -2.27820  eV     1   --> G_4            
     e( 44 - 44) =     -2.27794  eV     1   --> G_3            
     e( 45 - 45) =     -2.15691  eV     1   --> G_3            
     e( 46 - 46) =     -2.15662  eV     1   --> G_4            
     e( 47 - 48) =     -1.60962  eV     2   --> G_3            
     e( 47 - 48) =     -1.60962  eV     2   --> G_4            
     e( 49 - 49) =     -1.30517  eV     1   --> G_3            
     e( 50 - 50) =     -1.30501  eV     1   --> G_4            
     e( 51 - 52) =     -1.12829  eV     2   --> G_3            
     e( 51 - 52) =     -1.12829  eV     2   --> G_4            
     e( 53 - 54) =     -0.10117  eV     2   --> G_3            
     e( 53 - 54) =     -0.10117  eV     2   --> G_4            
     e( 55 - 56) =      0.16081  eV     2   --> G_3            
     e( 55 - 56) =      0.16081  eV     2   --> G_4            
     e( 57 - 57) =      0.54379  eV     1   --> G_3            
     e( 58 - 58) =      0.54397  eV     1   --> G_4            
     e( 59 - 60) =      1.20480  eV     2   --> G_3            
     e( 59 - 60) =      1.20480  eV     2   --> G_4            
     e( 61 - 62) =      1.69448  eV     2   --> G_3            
     e( 61 - 62) =      1.69448  eV     2   --> G_4            

 **************************************************************************

 **************************************************************************

                    xk=(   0.00000,  -0.11146,  -0.05833  )

     Band symmetry, C_s (m)     double point group:

     e(  1 -  2) =    -74.98961  eV     2   --> G_3            
     e(  1 -  2) =    -74.98961  eV     2   --> G_4            
     e(  3 -  4) =    -74.95235  eV     2   --> G_3            
     e(  3 -  4) =    -74.95235  eV     2   --> G_4            
     e(  5 -  6) =    -46.43890  eV     2   --> G_3            
     e(  5 -  6) =    -46.43890  eV     2   --> G_4            
     e(  7 -  8) =    -46.34158  eV     2   --> G_3            
     e(  7 -  8) =    -46.34158  eV     2   --> G_4            
     e(  9 - 10) =    -36.79198  eV     2   --> G_3            
     e(  9 - 10) =    -36.79198  eV     2   --> G_4            
     e( 11 - 12) =    -36.64971  eV     2   --> G_3            
     e( 11 - 12) =    -36.64971  eV     2   --> G_4            
     e( 13 - 14) =    -36.63678  eV     2   --> G_3            
     e( 13 - 14) =    -36.63678  eV     2   --> G_4            
     e( 15 - 16) =    -36.41550  eV     2   --> G_3            
     e( 15 - 16) =    -36.41550  eV     2   --> G_4            
     e( 17 - 18) =    -14.01329  eV     2   --> G_3            
     e( 17 - 18) =    -14.01329  eV     2   --> G_4            
     e( 19 - 20) =    -12.98473  eV     2   --> G_3            
     e( 19 - 20) =    -12.98473  eV     2   --> G_4            
     e( 21 - 22) =    -12.42649  eV     2   --> G_3            
     e( 21 - 22) =    -12.42649  eV     2   --> G_4            
     e( 23 - 24) =    -11.97338  eV     2   --> G_3            
     e( 23 - 24) =    -11.97338  eV     2   --> G_4            
     e( 25 - 25) =     -7.05369  eV     1   --> G_3            
     e( 26 - 26) =     -7.05349  eV     1   --> G_4            
     e( 27 - 27) =     -6.25113  eV     1   --> G_4            
     e( 28 - 28) =     -6.25093  eV     1   --> G_3            
     e( 29 - 30) =     -5.73993  eV     2   --> G_3            
     e( 29 - 30) =     -5.73993  eV     2   --> G_4            
     e( 31 - 32) =     -5.12240  eV     2   --> G_3            
     e( 31 - 32) =     -5.12240  eV     2   --> G_4            
     e( 33 - 34) =     -4.21406  eV     2   --> G_3            
     e( 33 - 34) =     -4.21406  eV     2   --> G_4            
     e( 35 - 36) =     -3.63275  eV     2   --> G_3            
     e( 35 - 36) =     -3.63275  eV     2   --> G_4            
     e( 37 - 38) =     -3.38658  eV     2   --> G_3            
     e( 37 - 38) =     -3.38658  eV     2   --> G_4            
     e( 39 - 39) =     -3.17041  eV     1   --> G_4            
     e( 40 - 40) =     -3.17027  eV     1   --> G_3            
     e( 41 - 41) =     -3.04032  eV     1   --> G_4            
     e( 42 - 42) =     -3.04009  eV     1   --> G_3            
     e( 43 - 43) =     -2.27530  eV     1   --> G_4            
     e( 44 - 44) =     -2.27517  eV     1   --> G_3            
     e( 45 - 46) =     -2.18716  eV     2   --> G_3            
     e( 45 - 46) =     -2.18716  eV     2   --> G_4            
     e( 47 - 48) =     -1.62667  eV     2   --> G_3            
     e( 47 - 48) =     -1.62667  eV     2   --> G_4            
     e( 49 - 49) =     -1.33556  eV     1   --> G_3            
     e( 50 - 50) =     -1.33527  eV     1   --> G_4            
     e( 51 - 52) =     -1.17672  eV     2   --> G_3            
     e( 51 - 52) =     -1.17672  eV     2   --> G_4            
     e( 53 - 54) =     -0.15511  eV     2   --> G_3            
     e( 53 - 54) =     -0.15511  eV     2   --> G_4            
     e( 55 - 56) =      0.12348  eV     2   --> G_3            
     e( 55 - 56) =      0.12348  eV     2   --> G_4            
     e( 57 - 57) =      0.53159  eV     1   --> G_3            
     e( 58 - 58) =      0.53178  eV     1   --> G_4            
     e( 59 - 60) =      1.23973  eV     2   --> G_3            
     e( 59 - 60) =      1.23973  eV     2   --> G_4            
     e( 61 - 61) =      1.72607  eV     1   --> G_4            
     e( 62 - 62) =      1.72618  eV     1   --> G_3            

 **************************************************************************

 **************************************************************************

                    xk=(   0.00000,  -0.12540,  -0.05833  )

     Band symmetry, C_s (m)     double point group:

     e(  1 -  2) =    -74.98961  eV     2   --> G_3            
     e(  1 -  2) =    -74.98961  eV     2   --> G_4            
     e(  3 -  4) =    -74.95236  eV     2   --> G_3            
     e(  3 -  4) =    -74.95236  eV     2   --> G_4            
     e(  5 -  6) =    -46.43885  eV     2   --> G_3            
     e(  5 -  6) =    -46.43885  eV     2   --> G_4            
     e(  7 -  8) =    -46.34162  eV     2   --> G_3            
     e(  7 -  8) =    -46.34162  eV     2   --> G_4            
     e(  9 - 10) =    -36.79159  eV     2   --> G_3            
     e(  9 - 10) =    -36.79159  eV     2   --> G_4            
     e( 11 - 12) =    -36.64970  eV     2   --> G_3            
     e( 11 - 12) =    -36.64970  eV     2   --> G_4            
     e( 13 - 14) =    -36.63680  eV     2   --> G_3            
     e( 13 - 14) =    -36.63680  eV     2   --> G_4            
     e( 15 - 16) =    -36.41592  eV     2   --> G_3            
     e( 15 - 16) =    -36.41592  eV     2   --> G_4            
     e( 17 - 18) =    -13.97786  eV     2   --> G_3            
     e( 17 - 18) =    -13.97786  eV     2   --> G_4            
     e( 19 - 20) =    -12.97462  eV     2   --> G_3            
     e( 19 - 20) =    -12.97462  eV     2   --> G_4            
     e( 21 - 22) =    -12.48710  eV     2   --> G_3            
     e( 21 - 22) =    -12.48710  eV     2   --> G_4            
     e( 23 - 24) =    -11.99139  eV     2   --> G_3            
     e( 23 - 24) =    -11.99139  eV     2   --> G_4            
     e( 25 - 25) =     -7.03393  eV     1   --> G_3            
     e( 26 - 26) =     -7.03372  eV     1   --> G_4            
     e( 27 - 27) =     -6.18713  eV     1   --> G_4            
     e( 28 - 28) =     -6.18688  eV     1   --> G_3            
     e( 29 - 30) =     -5.68203  eV     2   --> G_3            
     e( 29 - 30) =     -5.68203  eV     2   --> G_4            
     e( 31 - 31) =     -5.11894  eV     1   --> G_3            
     e( 32 - 32) =     -5.11883  eV     1   --> G_4            
     e( 33 - 34) =     -4.24431  eV     2   --> G_3            
     e( 33 - 34) =     -4.24431  eV     2   --> G_4            
     e( 35 - 36) =     -3.62260  eV     2   --> G_3            
     e( 35 - 36) =     -3.62260  eV     2   --> G_4            
     e( 37 - 37) =     -3.36471  eV     1   --> G_3            
     e( 38 - 38) =     -3.36459  eV     1   --> G_4            
     e( 39 - 40) =     -3.20703  eV     2   --> G_3            
     e( 39 - 40) =     -3.20703  eV     2   --> G_4            
     e( 41 - 41) =     -3.04403  eV     1   --> G_4            
     e( 42 - 42) =     -3.04375  eV     1   --> G_3            
     e( 43 - 43) =     -2.28672  eV     1   --> G_3            
     e( 44 - 44) =     -2.28658  eV     1   --> G_4            
     e( 45 - 45) =     -2.21226  eV     1   --> G_4            
     e( 46 - 46) =     -2.21198  eV     1   --> G_3            
     e( 47 - 48) =     -1.64570  eV     2   --> G_3            
     e( 47 - 48) =     -1.64570  eV     2   --> G_4            
     e( 49 - 49) =     -1.37607  eV     1   --> G_3            
     e( 50 - 50) =     -1.37564  eV     1   --> G_4            
     e( 51 - 52) =     -1.22847  eV     2   --> G_3            
     e( 51 - 52) =     -1.22847  eV     2   --> G_4            
     e( 53 - 54) =     -0.20791  eV     2   --> G_3            
     e( 53 - 54) =     -0.20791  eV     2   --> G_4            
     e( 55 - 56) =      0.08542  eV     2   --> G_3            
     e( 55 - 56) =      0.08542  eV     2   --> G_4            
     e( 57 - 57) =      0.51977  eV     1   --> G_3            
     e( 58 - 58) =      0.51996  eV     1   --> G_4            
     e( 59 - 60) =      1.26838  eV     2   --> G_3            
     e( 59 - 60) =      1.26838  eV     2   --> G_4            
     e( 61 - 61) =      1.76254  eV     1   --> G_4            
     e( 62 - 62) =      1.76271  eV     1   --> G_3            

 **************************************************************************

 **************************************************************************

                    xk=(   0.00000,  -0.13933,  -0.05833  )

     Band symmetry, C_s (m)     double point group:

     e(  1 -  2) =    -74.98960  eV     2   --> G_3            
     e(  1 -  2) =    -74.98960  eV     2   --> G_4            
     e(  3 -  4) =    -74.95236  eV     2   --> G_3            
     e(  3 -  4) =    -74.95236  eV     2   --> G_4            
     e(  5 -  6) =    -46.43879  eV     2   --> G_3            
     e(  5 -  6) =    -46.43879  eV     2   --> G_4            
     e(  7 -  8) =    -46.34168  eV     2   --> G_3            
     e(  7 -  8) =    -46.34168  eV     2   --> G_4            
     e(  9 - 10) =    -36.79119  eV     2   --> G_3            
     e(  9 - 10) =    -36.79119  eV     2   --> G_4            
     e( 11 - 12) =    -36.64968  eV     2   --> G_3            
     e( 11 - 12) =    -36.64968  eV     2   --> G_4            
     e( 13 - 14) =    -36.63683  eV     2   --> G_3            
     e( 13 - 14) =    -36.63683  eV     2   --> G_4            
     e( 15 - 16) =    -36.41636  eV     2   --> G_3            
     e( 15 - 16) =    -36.41636  eV     2   --> G_4            
     e( 17 - 18) =    -13.93860  eV     2   --> G_3            
     e( 17 - 18) =    -13.93860  eV     2   --> G_4            
     e( 19 - 20) =    -12.96572  eV     2   --> G_3            
     e( 19 - 20) =    -12.96572  eV     2   --> G_4            
     e( 21 - 22) =    -12.54870  eV     2   --> G_3            
     e( 21 - 22) =    -12.54870  eV     2   --> G_4            
     e( 23 - 24) =    -12.01142  eV     2   --> G_3            
     e( 23 - 24) =    -12.01142  eV     2   --> G_4            
     e( 25 - 25) =     -7.00945  eV     1   --> G_3            
     e( 26 - 26) =     -7.00924  eV     1   --> G_4            
     e( 27 - 27) =     -6.13236  eV     1   --> G_4            
     e( 28 - 28) =     -6.13206  eV     1   --> G_3            
     e( 29 - 29) =     -5.61278  eV     1   --> G_3            
     e( 30 - 30) =     -5.61264  eV     1   --> G_4            
     e( 31 - 31) =     -5.12240  eV     1   --> G_3            
     e( 32 - 32) =     -5.12228  eV     1   --> G_4            
     e( 33 - 33) =     -4.26363  eV     1   --> G_4            
     e( 34 - 34) =     -4.26349  eV     1   --> G_3            
     e( 35 - 36) =     -3.61247  eV     2   --> G_3            
     e( 35 - 36) =     -3.61247  eV     2   --> G_4            
     e( 37 - 37) =     -3.34272  eV     1   --> G_3            
     e( 38 - 38) =     -3.34253  eV     1   --> G_4            
     e( 39 - 40) =     -3.24602  eV     2   --> G_3            
     e( 39 - 40) =     -3.24602  eV     2   --> G_4            
     e( 41 - 41) =     -3.04189  eV     1   --> G_4            
     e( 42 - 42) =     -3.04155  eV     1   --> G_3            
     e( 43 - 43) =     -2.31041  eV     1   --> G_3            
     e( 44 - 44) =     -2.31003  eV     1   --> G_4            
     e( 45 - 45) =     -2.23340  eV     1   --> G_4            
     e( 46 - 46) =     -2.23281  eV     1   --> G_3            
     e( 47 - 48) =     -1.66668  eV     2   --> G_3            
     e( 47 - 48) =     -1.66668  eV     2   --> G_4            
     e( 49 - 49) =     -1.42440  eV     1   --> G_3            
     e( 50 - 50) =     -1.42384  eV     1   --> G_4            
     e( 51 - 52) =     -1.28306  eV     2   --> G_3            
     e( 51 - 52) =     -1.28306  eV     2   --> G_4            
     e( 53 - 54) =     -0.25819  eV     2   --> G_3            
     e( 53 - 54) =     -0.25819  eV     2   --> G_4            
     e( 55 - 56) =      0.04800  eV     2   --> G_3            
     e( 55 - 56) =      0.04800  eV     2   --> G_4            
     e( 57 - 57) =      0.50851  eV     1   --> G_3            
     e( 58 - 58) =      0.50870  eV     1   --> G_4            
     e( 59 - 59) =      1.28873  eV     1   --> G_3            
     e( 60 - 60) =      1.28883  eV     1   --> G_4            
     e( 61 - 61) =      1.80391  eV     1   --> G_4            
     e( 62 - 62) =      1.80412  eV     1   --> G_3            

 **************************************************************************

 **************************************************************************

                    xk=(   0.00000,  -0.15326,  -0.05833  )

     Band symmetry, C_s (m)     double point group:

     e(  1 -  2) =    -74.98960  eV     2   --> G_3            
     e(  1 -  2) =    -74.98960  eV     2   --> G_4            
     e(  3 -  4) =    -74.95237  eV     2   --> G_3            
     e(  3 -  4) =    -74.95237  eV     2   --> G_4            
     e(  5 -  6) =    -46.43874  eV     2   --> G_3            
     e(  5 -  6) =    -46.43874  eV     2   --> G_4            
     e(  7 -  8) =    -46.34173  eV     2   --> G_3            
     e(  7 -  8) =    -46.34173  eV     2   --> G_4            
     e(  9 - 10) =    -36.79080  eV     2   --> G_3            
     e(  9 - 10) =    -36.79080  eV     2   --> G_4            
     e( 11 - 12) =    -36.64967  eV     2   --> G_3            
     e( 11 - 12) =    -36.64967  eV     2   --> G_4            
     e( 13 - 14) =    -36.63686  eV     2   --> G_3            
     e( 13 - 14) =    -36.63686  eV     2   --> G_4            
     e( 15 - 16) =    -36.41679  eV     2   --> G_3            
     e( 15 - 16) =    -36.41679  eV     2   --> G_4            
     e( 17 - 18) =    -13.89560  eV     2   --> G_3            
     e( 17 - 18) =    -13.89560  eV     2   --> G_4            
     e( 19 - 20) =    -12.95987  eV     2   --> G_3            
     e( 19 - 20) =    -12.95987  eV     2   --> G_4            
     e( 21 - 22) =    -12.60906  eV     2   --> G_3            
     e( 21 - 22) =    -12.60906  eV     2   --> G_4            
     e( 23 - 24) =    -12.03293  eV     2   --> G_3            
     e( 23 - 24) =    -12.03293  eV     2   --> G_4            
     e( 25 - 25) =     -6.98080  eV     1   --> G_3            
     e( 26 - 26) =     -6.98059  eV     1   --> G_4            
     e( 27 - 27) =     -6.08751  eV     1   --> G_4            
     e( 28 - 28) =     -6.08717  eV     1   --> G_3            
     e( 29 - 29) =     -5.53782  eV     1   --> G_3            
     e( 30 - 30) =     -5.53761  eV     1   --> G_4            
     e( 31 - 31) =     -5.12881  eV     1   --> G_3            
     e( 32 - 32) =     -5.12868  eV     1   --> G_4            
     e( 33 - 33) =     -4.27059  eV     1   --> G_4            
     e( 34 - 34) =     -4.27040  eV     1   --> G_3            
     e( 35 - 35) =     -3.60308  eV     1   --> G_4            
     e( 36 - 36) =     -3.60297  eV     1   --> G_3            
     e( 37 - 37) =     -3.32546  eV     1   --> G_3            
     e( 38 - 38) =     -3.32505  eV     1   --> G_4            
     e( 39 - 39) =     -3.27925  eV     1   --> G_4            
     e( 40 - 40) =     -3.27904  eV     1   --> G_3            
     e( 41 - 41) =     -3.03879  eV     1   --> G_4            
     e( 42 - 42) =     -3.03839  eV     1   --> G_3            
     e( 43 - 43) =     -2.34127  eV     1   --> G_3            
     e( 44 - 44) =     -2.34077  eV     1   --> G_4            
     e( 45 - 45) =     -2.25395  eV     1   --> G_4            
     e( 46 - 46) =     -2.25320  eV     1   --> G_3            
     e( 47 - 48) =     -1.68968  eV     2   --> G_3            
     e( 47 - 48) =     -1.68968  eV     2   --> G_4            
     e( 49 - 49) =     -1.47747  eV     1   --> G_3            
     e( 50 - 50) =     -1.47680  eV     1   --> G_4            
     e( 51 - 52) =     -1.33954  eV     2   --> G_3            
     e( 51 - 52) =     -1.33954  eV     2   --> G_4            
     e( 53 - 54) =     -0.30516  eV     2   --> G_3            
     e( 53 - 54) =     -0.30516  eV     2   --> G_4            
     e( 55 - 56) =      0.01232  eV     2   --> G_3            
     e( 55 - 56) =      0.01232  eV     2   --> G_4            
     e( 57 - 57) =      0.49790  eV     1   --> G_3            
     e( 58 - 58) =      0.49809  eV     1   --> G_4            
     e( 59 - 59) =      1.30092  eV     1   --> G_3            
     e( 60 - 60) =      1.30105  eV     1   --> G_4            
     e( 61 - 61) =      1.84914  eV     1   --> G_4            
     e( 62 - 62) =      1.84937  eV     1   --> G_3            

 **************************************************************************

 **************************************************************************

                    xk=(   0.00000,  -0.16720,  -0.05833  )

     Band symmetry, C_s (m)     double point group:

     e(  1 -  2) =    -74.98959  eV     2   --> G_3            
     e(  1 -  2) =    -74.98959  eV     2   --> G_4            
     e(  3 -  4) =    -74.95238  eV     2   --> G_3            
     e(  3 -  4) =    -74.95238  eV     2   --> G_4            
     e(  5 -  6) =    -46.43870  eV     2   --> G_3            
     e(  5 -  6) =    -46.43870  eV     2   --> G_4            
     e(  7 -  8) =    -46.34178  eV     2   --> G_3            
     e(  7 -  8) =    -46.34178  eV     2   --> G_4            
     e(  9 - 10) =    -36.79041  eV     2   --> G_3            
     e(  9 - 10) =    -36.79041  eV     2   --> G_4            
     e( 11 - 12) =    -36.64966  eV     2   --> G_3            
     e( 11 - 12) =    -36.64966  eV     2   --> G_4            
     e( 13 - 14) =    -36.63689  eV     2   --> G_3            
     e( 13 - 14) =    -36.63689  eV     2   --> G_4            
     e( 15 - 16) =    -36.41722  eV     2   --> G_3            
     e( 15 - 16) =    -36.41722  eV     2   --> G_4            
     e( 17 - 18) =    -13.84902  eV     2   --> G_3            
     e( 17 - 18) =    -13.84902  eV     2   --> G_4            
     e( 19 - 20) =    -12.96024  eV     2   --> G_3            
     e( 19 - 20) =    -12.96024  eV     2   --> G_4            
     e( 21 - 22) =    -12.66467  eV     2   --> G_3            
     e( 21 - 22) =    -12.66467  eV     2   --> G_4            
     e( 23 - 24) =    -12.05532  eV     2   --> G_3            
     e( 23 - 24) =    -12.05532  eV     2   --> G_4            
     e( 25 - 25) =     -6.94870  eV     1   --> G_3            
     e( 26 - 26) =     -6.94849  eV     1   --> G_4            
     e( 27 - 27) =     -6.05173  eV     1   --> G_4            
     e( 28 - 28) =     -6.05134  eV     1   --> G_3            
     e( 29 - 29) =     -5.47052  eV     1   --> G_3            
     e( 30 - 30) =     -5.47024  eV     1   --> G_4            
     e( 31 - 31) =     -5.12633  eV     1   --> G_3            
     e( 32 - 32) =     -5.12622  eV     1   --> G_4            
     e( 33 - 33) =     -4.26570  eV     1   --> G_4            
     e( 34 - 34) =     -4.26549  eV     1   --> G_3            
     e( 35 - 35) =     -3.59547  eV     1   --> G_4            
     e( 36 - 36) =     -3.59533  eV     1   --> G_3            
     e( 37 - 37) =     -3.33624  eV     1   --> G_3            
     e( 38 - 38) =     -3.33578  eV     1   --> G_4            
     e( 39 - 39) =     -3.28138  eV     1   --> G_4            
     e( 40 - 40) =     -3.28118  eV     1   --> G_3            
     e( 41 - 41) =     -3.03847  eV     1   --> G_4            
     e( 42 - 42) =     -3.03801  eV     1   --> G_3            
     e( 43 - 43) =     -2.37563  eV     1   --> G_3            
     e( 44 - 44) =     -2.37512  eV     1   --> G_4            
     e( 45 - 45) =     -2.27499  eV     1   --> G_4            
     e( 46 - 46) =     -2.27422  eV     1   --> G_3            
     e( 47 - 48) =     -1.71502  eV     2   --> G_3            
     e( 47 - 48) =     -1.71502  eV     2   --> G_4            
     e( 49 - 49) =     -1.53178  eV     1   --> G_3            
     e( 50 - 50) =     -1.53105  eV     1   --> G_4            
     e( 51 - 52) =     -1.39650  eV     2   --> G_3            
     e( 51 - 52) =     -1.39650  eV     2   --> G_4            
     e( 53 - 54) =     -0.34850  eV     2   --> G_3            
     e( 53 - 54) =     -0.34850  eV     2   --> G_4            
     e( 55 - 56) =     -0.02073  eV     2   --> G_3            
     e( 55 - 56) =     -0.02073  eV     2   --> G_4            
     e( 57 - 57) =      0.48797  eV     1   --> G_3            
     e( 58 - 58) =      0.48815  eV     1   --> G_4            
     e( 59 - 59) =      1.30690  eV     1   --> G_3            
     e( 60 - 60) =      1.30704  eV     1   --> G_4            
     e( 61 - 61) =      1.89611  eV     1   --> G_4            
     e( 62 - 62) =      1.89637  eV     1   --> G_3            

 **************************************************************************

 **************************************************************************

                    xk=(   0.00000,  -0.18113,  -0.05833  )

     Band symmetry, C_s (m)     double point group:

     e(  1 -  2) =    -74.98958  eV     2   --> G_3            
     e(  1 -  2) =    -74.98958  eV     2   --> G_4            
     e(  3 -  4) =    -74.95238  eV     2   --> G_3            
     e(  3 -  4) =    -74.95238  eV     2   --> G_4            
     e(  5 -  6) =    -46.43865  eV     2   --> G_3            
     e(  5 -  6) =    -46.43865  eV     2   --> G_4            
     e(  7 -  8) =    -46.34182  eV     2   --> G_3            
     e(  7 -  8) =    -46.34182  eV     2   --> G_4            
     e(  9 - 10) =    -36.79003  eV     2   --> G_3            
     e(  9 - 10) =    -36.79003  eV     2   --> G_4            
     e( 11 - 12) =    -36.64964  eV     2   --> G_3            
     e( 11 - 12) =    -36.64964  eV     2   --> G_4            
     e( 13 - 14) =    -36.63692  eV     2   --> G_3            
     e( 13 - 14) =    -36.63692  eV     2   --> G_4            
     e( 15 - 16) =    -36.41762  eV     2   --> G_3            
     e( 15 - 16) =    -36.41762  eV     2   --> G_4            
     e( 17 - 18) =    -13.79899  eV     2   --> G_3            
     e( 17 - 18) =    -13.79899  eV     2   --> G_4            
     e( 19 - 20) =    -12.97178  eV     2   --> G_3            
     e( 19 - 20) =    -12.97178  eV     2   --> G_4            
     e( 21 - 22) =    -12.71039  eV     2   --> G_3            
     e( 21 - 22) =    -12.71039  eV     2   --> G_4            
     e( 23 - 24) =    -12.07791  eV     2   --> G_3            
     e( 23 - 24) =    -12.07791  eV     2   --> G_4            
     e( 25 - 25) =     -6.91409  eV     1   --> G_3            
     e( 26 - 26) =     -6.91388  eV     1   --> G_4            
     e( 27 - 27) =     -6.02354  eV     1   --> G_4            
     e( 28 - 28) =     -6.02312  eV     1   --> G_3            
     e( 29 - 29) =     -5.43200  eV     1   --> G_3            
     e( 30 - 30) =     -5.43166  eV     1   --> G_4            
     e( 31 - 32) =     -5.09469  eV     2   --> G_3            
     e( 31 - 32) =     -5.09469  eV     2   --> G_4            
     e( 33 - 33) =     -4.25115  eV     1   --> G_4            
     e( 34 - 34) =     -4.25092  eV     1   --> G_3            
     e( 35 - 35) =     -3.59102  eV     1   --> G_4            
     e( 36 - 36) =     -3.59087  eV     1   --> G_3            
     e( 37 - 37) =     -3.36406  eV     1   --> G_3            
     e( 38 - 38) =     -3.36369  eV     1   --> G_4            
     e( 39 - 40) =     -3.26215  eV     2   --> G_3            
     e( 39 - 40) =     -3.26215  eV     2   --> G_4            
     e( 41 - 41) =     -3.04486  eV     1   --> G_4            
     e( 42 - 42) =     -3.04434  eV     1   --> G_3            
     e( 43 - 43) =     -2.41037  eV     1   --> G_3            
     e( 44 - 44) =     -2.40991  eV     1   --> G_4            
     e( 45 - 45) =     -2.29540  eV     1   --> G_4            
     e( 46 - 46) =     -2.29470  eV     1   --> G_3            
     e( 47 - 48) =     -1.74343  eV     2   --> G_3            
     e( 47 - 48) =     -1.74343  eV     2   --> G_4            
     e( 49 - 49) =     -1.58353  eV     1   --> G_3            
     e( 50 - 50) =     -1.58280  eV     1   --> G_4            
     e( 51 - 52) =     -1.45231  eV     2   --> G_3            
     e( 51 - 52) =     -1.45231  eV     2   --> G_4            
     e( 53 - 54) =     -0.38808  eV     2   --> G_3            
     e( 53 - 54) =     -0.38808  eV     2   --> G_4            
     e( 55 - 56) =     -0.05055  eV     2   --> G_3            
     e( 55 - 56) =     -0.05055  eV     2   --> G_4            
     e( 57 - 57) =      0.47875  eV     1   --> G_3            
     e( 58 - 58) =      0.47893  eV     1   --> G_4            
     e( 59 - 59) =      1.30935  eV     1   --> G_3            
     e( 60 - 60) =      1.30949  eV     1   --> G_4            
     e( 61 - 61) =      1.94198  eV     1   --> G_4            
     e( 62 - 62) =      1.94227  eV     1   --> G_3            

 **************************************************************************

 **************************************************************************

                    xk=(   0.00000,  -0.19506,  -0.05833  )

     Band symmetry, C_s (m)     double point group:

     e(  1 -  2) =    -74.98958  eV     2   --> G_3            
     e(  1 -  2) =    -74.98958  eV     2   --> G_4            
     e(  3 -  4) =    -74.95239  eV     2   --> G_3            
     e(  3 -  4) =    -74.95239  eV     2   --> G_4            
     e(  5 -  6) =    -46.43860  eV     2   --> G_3            
     e(  5 -  6) =    -46.43860  eV     2   --> G_4            
     e(  7 -  8) =    -46.34187  eV     2   --> G_3            
     e(  7 -  8) =    -46.34187  eV     2   --> G_4            
     e(  9 - 10) =    -36.78969  eV     2   --> G_3            
     e(  9 - 10) =    -36.78969  eV     2   --> G_4            
     e( 11 - 12) =    -36.64963  eV     2   --> G_3            
     e( 11 - 12) =    -36.64963  eV     2   --> G_4            
     e( 13 - 14) =    -36.63695  eV     2   --> G_3            
     e( 13 - 14) =    -36.63695  eV     2   --> G_4            
     e( 15 - 16) =    -36.41799  eV     2   --> G_3            
     e( 15 - 16) =    -36.41799  eV     2   --> G_4            
     e( 17 - 18) =    -13.74569  eV     2   --> G_3            
     e( 17 - 18) =    -13.74569  eV     2   --> G_4            
     e( 19 - 20) =    -12.99953  eV     2   --> G_3            
     e( 19 - 20) =    -12.99953  eV     2   --> G_4            
     e( 21 - 22) =    -12.74107  eV     2   --> G_3            
     e( 21 - 22) =    -12.74107  eV     2   --> G_4            
     e( 23 - 24) =    -12.09999  eV     2   --> G_3            
     e( 23 - 24) =    -12.09999  eV     2   --> G_4            
     e( 25 - 25) =     -6.87813  eV     1   --> G_3            
     e( 26 - 26) =     -6.87792  eV     1   --> G_4            
     e( 27 - 27) =     -6.00163  eV     1   --> G_4            
     e( 28 - 28) =     -6.00120  eV     1   --> G_3            
     e( 29 - 29) =     -5.43202  eV     1   --> G_3            
     e( 30 - 30) =     -5.43165  eV     1   --> G_4            
     e( 31 - 32) =     -5.02444  eV     2   --> G_3            
     e( 31 - 32) =     -5.02444  eV     2   --> G_4            
     e( 33 - 33) =     -4.22996  eV     1   --> G_4            
     e( 34 - 34) =     -4.22973  eV     1   --> G_3            
     e( 35 - 35) =     -3.59128  eV     1   --> G_4            
     e( 36 - 36) =     -3.59113  eV     1   --> G_3            
     e( 37 - 37) =     -3.38820  eV     1   --> G_3            
     e( 38 - 38) =     -3.38787  eV     1   --> G_4            
     e( 39 - 40) =     -3.24140  eV     2   --> G_3            
     e( 39 - 40) =     -3.24140  eV     2   --> G_4            
     e( 41 - 41) =     -3.06214  eV     1   --> G_4            
     e( 42 - 42) =     -3.06156  eV     1   --> G_3            
     e( 43 - 43) =     -2.44110  eV     1   --> G_3            
     e( 44 - 44) =     -2.44070  eV     1   --> G_4            
     e( 45 - 45) =     -2.31379  eV     1   --> G_4            
     e( 46 - 46) =     -2.31319  eV     1   --> G_3            
     e( 47 - 47) =     -1.77602  eV     1   --> G_3            
     e( 48 - 48) =     -1.77587  eV     1   --> G_4            
     e( 49 - 49) =     -1.62887  eV     1   --> G_3            
     e( 50 - 50) =     -1.62824  eV     1   --> G_4            
     e( 51 - 52) =     -1.50544  eV     2   --> G_3            
     e( 51 - 52) =     -1.50544  eV     2   --> G_4            
     e( 53 - 54) =     -0.42373  eV     2   --> G_3            
     e( 53 - 54) =     -0.42373  eV     2   --> G_4            
     e( 55 - 56) =     -0.07671  eV     2   --> G_3            
     e( 55 - 56) =     -0.07671  eV     2   --> G_4            
     e( 57 - 57) =      0.47030  eV     1   --> G_3            
     e( 58 - 58) =      0.47046  eV     1   --> G_4            
     e( 59 - 59) =      1.31068  eV     1   --> G_3            
     e( 60 - 60) =      1.31081  eV     1   --> G_4            
     e( 61 - 61) =      1.98294  eV     1   --> G_4            
     e( 62 - 62) =      1.98327  eV     1   --> G_3            

 **************************************************************************

 **************************************************************************

                    xk=(   0.00000,  -0.20900,  -0.05833  )

     Band symmetry, C_s (m)     double point group:

     e(  1 -  2) =    -74.98957  eV     2   --> G_3            
     e(  1 -  2) =    -74.98957  eV     2   --> G_4            
     e(  3 -  4) =    -74.95239  eV     2   --> G_3            
     e(  3 -  4) =    -74.95239  eV     2   --> G_4            
     e(  5 -  6) =    -46.43856  eV     2   --> G_3            
     e(  5 -  6) =    -46.43856  eV     2   --> G_4            
     e(  7 -  8) =    -46.34191  eV     2   --> G_3            
     e(  7 -  8) =    -46.34191  eV     2   --> G_4            
     e(  9 - 10) =    -36.78938  eV     2   --> G_3            
     e(  9 - 10) =    -36.78938  eV     2   --> G_4            
     e( 11 - 12) =    -36.64961  eV     2   --> G_3            
     e( 11 - 12) =    -36.64961  eV     2   --> G_4            
     e( 13 - 14) =    -36.63697  eV     2   --> G_3            
     e( 13 - 14) =    -36.63697  eV     2   --> G_4            
     e( 15 - 16) =    -36.41832  eV     2   --> G_3            
     e( 15 - 16) =    -36.41832  eV     2   --> G_4            
     e( 17 - 18) =    -13.68934  eV     2   --> G_3            
     e( 17 - 18) =    -13.68934  eV     2   --> G_4            
     e( 19 - 20) =    -13.04403  eV     2   --> G_3            
     e( 19 - 20) =    -13.04403  eV     2   --> G_4            
     e( 21 - 22) =    -12.75616  eV     2   --> G_3            
     e( 21 - 22) =    -12.75616  eV     2   --> G_4            
     e( 23 - 24) =    -12.12077  eV     2   --> G_3            
     e( 23 - 24) =    -12.12077  eV     2   --> G_4            
     e( 25 - 25) =     -6.84226  eV     1   --> G_3            
     e( 26 - 26) =     -6.84207  eV     1   --> G_4            
     e( 27 - 27) =     -5.98507  eV     1   --> G_4            
     e( 28 - 28) =     -5.98463  eV     1   --> G_3            
     e( 29 - 29) =     -5.45692  eV     1   --> G_3            
     e( 30 - 30) =     -5.45656  eV     1   --> G_4            
     e( 31 - 31) =     -4.92958  eV     1   --> G_3            
     e( 32 - 32) =     -4.92946  eV     1   --> G_4            
     e( 33 - 33) =     -4.20534  eV     1   --> G_4            
     e( 34 - 34) =     -4.20511  eV     1   --> G_3            
     e( 35 - 35) =     -3.59715  eV     1   --> G_4            
     e( 36 - 36) =     -3.59703  eV     1   --> G_3            
     e( 37 - 37) =     -3.40485  eV     1   --> G_3            
     e( 38 - 38) =     -3.40457  eV     1   --> G_4            
     e( 39 - 39) =     -3.22276  eV     1   --> G_3            
     e( 40 - 40) =     -3.22263  eV     1   --> G_4            
     e( 41 - 41) =     -3.09312  eV     1   --> G_4            
     e( 42 - 42) =     -3.09247  eV     1   --> G_3            
     e( 43 - 43) =     -2.46265  eV     1   --> G_3            
     e( 44 - 44) =     -2.46231  eV     1   --> G_4            
     e( 45 - 45) =     -2.32946  eV     1   --> G_4            
     e( 46 - 46) =     -2.32896  eV     1   --> G_3            
     e( 47 - 47) =     -1.81325  eV     1   --> G_3            
     e( 48 - 48) =     -1.81301  eV     1   --> G_4            
     e( 49 - 49) =     -1.66485  eV     1   --> G_3            
     e( 50 - 50) =     -1.66439  eV     1   --> G_4            
     e( 51 - 52) =     -1.55449  eV     2   --> G_3            
     e( 51 - 52) =     -1.55449  eV     2   --> G_4            
     e( 53 - 54) =     -0.45515  eV     2   --> G_3            
     e( 53 - 54) =     -0.45515  eV     2   --> G_4            
     e( 55 - 56) =     -0.09897  eV     2   --> G_3            
     e( 55 - 56) =     -0.09897  eV     2   --> G_4            
     e( 57 - 57) =      0.46271  eV     1   --> G_3            
     e( 58 - 58) =      0.46284  eV     1   --> G_4            
     e( 59 - 59) =      1.31249  eV     1   --> G_3            
     e( 60 - 60) =      1.31261  eV     1   --> G_4            
     e( 61 - 61) =      2.01278  eV     1   --> G_4            
     e( 62 - 62) =      2.01317  eV     1   --> G_3            

 **************************************************************************

 **************************************************************************

                    xk=(   0.00000,  -0.22293,  -0.05833  )

     Band symmetry, C_s (m)     double point group:

     e(  1 -  2) =    -74.98957  eV     2   --> G_3            
     e(  1 -  2) =    -74.98957  eV     2   --> G_4            
     e(  3 -  4) =    -74.95240  eV     2   --> G_3            
     e(  3 -  4) =    -74.95240  eV     2   --> G_4            
     e(  5 -  6) =    -46.43852  eV     2   --> G_3            
     e(  5 -  6) =    -46.43852  eV     2   --> G_4            
     e(  7 -  8) =    -46.34194  eV     2   --> G_3            
     e(  7 -  8) =    -46.34194  eV     2   --> G_4            
     e(  9 - 10) =    -36.78912  eV     2   --> G_3            
     e(  9 - 10) =    -36.78912  eV     2   --> G_4            
     e( 11 - 12) =    -36.64959  eV     2   --> G_3            
     e( 11 - 12) =    -36.64959  eV     2   --> G_4            
     e( 13 - 14) =    -36.63700  eV     2   --> G_3            
     e( 13 - 14) =    -36.63700  eV     2   --> G_4            
     e( 15 - 16) =    -36.41861  eV     2   --> G_3            
     e( 15 - 16) =    -36.41861  eV     2   --> G_4            
     e( 17 - 18) =    -13.63016  eV     2   --> G_3            
     e( 17 - 18) =    -13.63016  eV     2   --> G_4            
     e( 19 - 20) =    -13.10069  eV     2   --> G_3            
     e( 19 - 20) =    -13.10069  eV     2   --> G_4            
     e( 21 - 22) =    -12.76036  eV     2   --> G_3            
     e( 21 - 22) =    -12.76036  eV     2   --> G_4            
     e( 23 - 24) =    -12.13942  eV     2   --> G_3            
     e( 23 - 24) =    -12.13942  eV     2   --> G_4            
     e( 25 - 25) =     -6.80827  eV     1   --> G_3            
     e( 26 - 26) =     -6.80811  eV     1   --> G_4            
     e( 27 - 27) =     -5.97317  eV     1   --> G_4            
     e( 28 - 28) =     -5.97275  eV     1   --> G_3            
     e( 29 - 29) =     -5.49076  eV     1   --> G_3            
     e( 30 - 30) =     -5.49042  eV     1   --> G_4            
     e( 31 - 31) =     -4.82724  eV     1   --> G_3            
     e( 32 - 32) =     -4.82712  eV     1   --> G_4            
     e( 33 - 33) =     -4.18030  eV     1   --> G_4            
     e( 34 - 34) =     -4.18010  eV     1   --> G_3            
     e( 35 - 36) =     -3.60781  eV     2   --> G_3            
     e( 35 - 36) =     -3.60781  eV     2   --> G_4            
     e( 37 - 37) =     -3.41374  eV     1   --> G_3            
     e( 38 - 38) =     -3.41353  eV     1   --> G_4            
     e( 39 - 39) =     -3.20971  eV     1   --> G_3            
     e( 40 - 40) =     -3.20942  eV     1   --> G_4            
     e( 41 - 41) =     -3.13525  eV     1   --> G_4            
     e( 42 - 42) =     -3.13451  eV     1   --> G_3            
     e( 43 - 43) =     -2.47179  eV     1   --> G_3            
     e( 44 - 44) =     -2.47152  eV     1   --> G_4            
     e( 45 - 45) =     -2.34237  eV     1   --> G_4            
     e( 46 - 46) =     -2.34196  eV     1   --> G_3            
     e( 47 - 47) =     -1.85353  eV     1   --> G_3            
     e( 48 - 48) =     -1.85323  eV     1   --> G_4            
     e( 49 - 49) =     -1.69055  eV     1   --> G_3            
     e( 50 - 50) =     -1.69026  eV     1   --> G_4            
     e( 51 - 52) =     -1.59829  eV     2   --> G_3            
     e( 51 - 52) =     -1.59829  eV     2   --> G_4            
     e( 53 - 54) =     -0.48187  eV     2   --> G_3            
     e( 53 - 54) =     -0.48187  eV     2   --> G_4            
     e( 55 - 56) =     -0.11721  eV     2   --> G_3            
     e( 55 - 56) =     -0.11721  eV     2   --> G_4            
     e( 57 - 57) =      0.45612  eV     1   --> G_3            
     e( 58 - 58) =      0.45624  eV     1   --> G_4            
     e( 59 - 59) =      1.31544  eV     1   --> G_3            
     e( 60 - 60) =      1.31555  eV     1   --> G_4            
     e( 61 - 61) =      2.02330  eV     1   --> G_4            
     e( 62 - 62) =      2.02371  eV     1   --> G_3            

 **************************************************************************

 **************************************************************************

                    xk=(   0.00000,  -0.23686,  -0.05833  )

     Band symmetry, C_s (m)     double point group:

     e(  1 -  2) =    -74.98957  eV     2   --> G_3            
     e(  1 -  2) =    -74.98957  eV     2   --> G_4            
     e(  3 -  4) =    -74.95240  eV     2   --> G_3            
     e(  3 -  4) =    -74.95240  eV     2   --> G_4            
     e(  5 -  6) =    -46.43850  eV     2   --> G_3            
     e(  5 -  6) =    -46.43850  eV     2   --> G_4            
     e(  7 -  8) =    -46.34197  eV     2   --> G_3            
     e(  7 -  8) =    -46.34197  eV     2   --> G_4            
     e(  9 - 10) =    -36.78891  eV     2   --> G_3            
     e(  9 - 10) =    -36.78891  eV     2   --> G_4            
     e( 11 - 12) =    -36.64958  eV     2   --> G_3            
     e( 11 - 12) =    -36.64958  eV     2   --> G_4            
     e( 13 - 14) =    -36.63701  eV     2   --> G_3            
     e( 13 - 14) =    -36.63701  eV     2   --> G_4            
     e( 15 - 16) =    -36.41884  eV     2   --> G_3            
     e( 15 - 16) =    -36.41884  eV     2   --> G_4            
     e( 17 - 18) =    -13.56847  eV     2   --> G_3            
     e( 17 - 18) =    -13.56847  eV     2   --> G_4            
     e( 19 - 20) =    -13.16423  eV     2   --> G_3            
     e( 19 - 20) =    -13.16423  eV     2   --> G_4            
     e( 21 - 22) =    -12.75907  eV     2   --> G_3            
     e( 21 - 22) =    -12.75907  eV     2   --> G_4            
     e( 23 - 24) =    -12.15511  eV     2   --> G_3            
     e( 23 - 24) =    -12.15511  eV     2   --> G_4            
     e( 25 - 25) =     -6.77824  eV     1   --> G_3            
     e( 26 - 26) =     -6.77810  eV     1   --> G_4            
     e( 27 - 27) =     -5.96536  eV     1   --> G_4            
     e( 28 - 28) =     -5.96499  eV     1   --> G_3            
     e( 29 - 29) =     -5.52390  eV     1   --> G_3            
     e( 30 - 30) =     -5.52361  eV     1   --> G_4            
     e( 31 - 31) =     -4.72990  eV     1   --> G_3            
     e( 32 - 32) =     -4.72979  eV     1   --> G_4            
     e( 33 - 33) =     -4.15756  eV     1   --> G_4            
     e( 34 - 34) =     -4.15740  eV     1   --> G_3            
     e( 35 - 36) =     -3.62065  eV     2   --> G_3            
     e( 35 - 36) =     -3.62065  eV     2   --> G_4            
     e( 37 - 37) =     -3.41646  eV     1   --> G_3            
     e( 38 - 38) =     -3.41633  eV     1   --> G_4            
     e( 39 - 39) =     -3.21925  eV     1   --> G_3            
     e( 40 - 40) =     -3.21895  eV     1   --> G_4            
     e( 41 - 41) =     -3.16680  eV     1   --> G_4            
     e( 42 - 42) =     -3.16615  eV     1   --> G_3            
     e( 43 - 43) =     -2.46927  eV     1   --> G_3            
     e( 44 - 44) =     -2.46905  eV     1   --> G_4            
     e( 45 - 45) =     -2.35287  eV     1   --> G_4            
     e( 46 - 46) =     -2.35255  eV     1   --> G_3            
     e( 47 - 47) =     -1.89306  eV     1   --> G_3            
     e( 48 - 48) =     -1.89276  eV     1   --> G_4            
     e( 49 - 49) =     -1.70675  eV     1   --> G_3            
     e( 50 - 50) =     -1.70661  eV     1   --> G_4            
     e( 51 - 52) =     -1.63588  eV     2   --> G_3            
     e( 51 - 52) =     -1.63588  eV     2   --> G_4            
     e( 53 - 54) =     -0.50338  eV     2   --> G_3            
     e( 53 - 54) =     -0.50338  eV     2   --> G_4            
     e( 55 - 56) =     -0.13138  eV     2   --> G_3            
     e( 55 - 56) =     -0.13138  eV     2   --> G_4            
     e( 57 - 58) =      0.45073  eV     2   --> G_3            
     e( 57 - 58) =      0.45073  eV     2   --> G_4            
     e( 59 - 60) =      1.31932  eV     2   --> G_3            
     e( 59 - 60) =      1.31932  eV     2   --> G_4            
     e( 61 - 61) =      2.01609  eV     1   --> G_4            
     e( 62 - 62) =      2.01642  eV     1   --> G_3            

 **************************************************************************

 **************************************************************************

                    xk=(   0.00000,  -0.25080,  -0.05833  )

     Band symmetry, C_s (m)     double point group:

     e(  1 -  2) =    -74.98957  eV     2   --> G_3            
     e(  1 -  2) =    -74.98957  eV     2   --> G_4            
     e(  3 -  4) =    -74.95240  eV     2   --> G_3            
     e(  3 -  4) =    -74.95240  eV     2   --> G_4            
     e(  5 -  6) =    -46.43848  eV     2   --> G_3            
[...]
     e( 39 - 39) =     -3.39631  eV     1   --> G_2            
     e( 40 - 40) =     -3.39609  eV     1   --> G_2            
     e( 41 - 41) =     -2.75307  eV     1   --> G_2            
     e( 42 - 42) =     -2.75276  eV     1   --> G_2            
     e( 43 - 43) =     -2.58203  eV     1   --> G_2            
     e( 44 - 44) =     -2.58116  eV     1   --> G_2            
     e( 45 - 45) =     -2.17875  eV     1   --> G_2            
     e( 46 - 46) =     -2.17768  eV     1   --> G_2            
     e( 47 - 47) =     -1.91868  eV     1   --> G_2            
     e( 48 - 48) =     -1.91814  eV     1   --> G_2            
     e( 49 - 49) =     -1.32732  eV     1   --> G_2            
     e( 50 - 50) =     -1.32682  eV     1   --> G_2            
     e( 51 - 51) =     -1.08159  eV     1   --> G_2            
     e( 52 - 52) =     -1.08118  eV     1   --> G_2            
     e( 53 - 53) =     -0.92903  eV     1   --> G_2            
     e( 54 - 54) =     -0.92807  eV     1   --> G_2            
     e( 55 - 55) =      0.55964  eV     1   --> G_2            
     e( 56 - 56) =      0.56035  eV     1   --> G_2            
     e( 57 - 57) =      0.87305  eV     1   --> G_2            
     e( 58 - 58) =      0.87372  eV     1   --> G_2            
     e( 59 - 59) =      1.16962  eV     1   --> G_2            
     e( 60 - 60) =      1.17024  eV     1   --> G_2            
     e( 61 - 61) =      1.39622  eV     1   --> G_2            
     e( 62 - 62) =      1.39648  eV     1   --> G_2            

 **************************************************************************

 **************************************************************************

                    xk=(   0.10000,   0.00000,  -0.05833  )

     Band symmetry, C_1 (1)     double point group:

     e(  1 -  2) =    -74.98853  eV     2   -->   2 G_2            
     e(  3 -  4) =    -74.95304  eV     2   -->   2 G_2            
     e(  5 -  6) =    -46.43777  eV     2   -->   2 G_2            
     e(  7 -  8) =    -46.34478  eV     2   -->   2 G_2            
     e(  9 - 10) =    -36.79711  eV     2   -->   2 G_2            
     e( 11 - 11) =    -36.66430  eV     1   --> G_2            
     e( 12 - 12) =    -36.66419  eV     1   --> G_2            
     e( 13 - 13) =    -36.62343  eV     1   --> G_2            
     e( 14 - 14) =    -36.62331  eV     1   --> G_2            
     e( 15 - 16) =    -36.41927  eV     2   -->   2 G_2            
     e( 17 - 18) =    -14.03308  eV     2   -->   2 G_2            
     e( 19 - 20) =    -12.96409  eV     2   -->   2 G_2            
     e( 21 - 22) =    -12.08695  eV     2   -->   2 G_2            
     e( 23 - 24) =    -11.85049  eV     2   -->   2 G_2            
     e( 25 - 26) =     -6.95162  eV     2   -->   2 G_2            
     e( 27 - 28) =     -6.53950  eV     2   -->   2 G_2            
     e( 29 - 30) =     -5.85898  eV     2   -->   2 G_2            
     e( 31 - 31) =     -5.16640  eV     1   --> G_2            
     e( 32 - 32) =     -5.16629  eV     1   --> G_2            
     e( 33 - 33) =     -4.03445  eV     1   --> G_2            
     e( 34 - 34) =     -4.03424  eV     1   --> G_2            
     e( 35 - 35) =     -3.86081  eV     1   --> G_2            
     e( 36 - 36) =     -3.85961  eV     1   --> G_2            
     e( 37 - 37) =     -3.71863  eV     1   --> G_2            
     e( 38 - 38) =     -3.71733  eV     1   --> G_2            
     e( 39 - 39) =     -3.27520  eV     1   --> G_2            
     e( 40 - 40) =     -3.27500  eV     1   --> G_2            
     e( 41 - 41) =     -2.72911  eV     1   --> G_2            
     e( 42 - 42) =     -2.72882  eV     1   --> G_2            
     e( 43 - 43) =     -2.53529  eV     1   --> G_2            
     e( 44 - 44) =     -2.53450  eV     1   --> G_2            
     e( 45 - 45) =     -2.09877  eV     1   --> G_2            
     e( 46 - 46) =     -2.09788  eV     1   --> G_2            
     e( 47 - 47) =     -1.85880  eV     1   --> G_2            
     e( 48 - 48) =     -1.85843  eV     1   --> G_2            
     e( 49 - 49) =     -1.30235  eV     1   --> G_2            
     e( 50 - 50) =     -1.30195  eV     1   --> G_2            
     e( 51 - 51) =     -1.03131  eV     1   --> G_2            
     e( 52 - 52) =     -1.03117  eV     1   --> G_2            
     e( 53 - 53) =     -0.69876  eV     1   --> G_2            
     e( 54 - 54) =     -0.69817  eV     1   --> G_2            
     e( 55 - 55) =      0.58169  eV     1   --> G_2            
     e( 56 - 56) =      0.58275  eV     1   --> G_2            
     e( 57 - 57) =      0.81299  eV     1   --> G_2            
     e( 58 - 58) =      0.81394  eV     1   --> G_2            
     e( 59 - 59) =      1.13553  eV     1   --> G_2            
     e( 60 - 60) =      1.13586  eV     1   --> G_2            
     e( 61 - 61) =      1.42186  eV     1   --> G_2            
     e( 62 - 62) =      1.42232  eV     1   --> G_2            

 **************************************************************************

 **************************************************************************

                    xk=(   0.07500,   0.00000,  -0.05833  )

     Band symmetry, C_1 (1)     double point group:

     e(  1 -  2) =    -74.98901  eV     2   -->   2 G_2            
     e(  3 -  4) =    -74.95273  eV     2   -->   2 G_2            
     e(  5 -  6) =    -46.43837  eV     2   -->   2 G_2            
     e(  7 -  8) =    -46.34330  eV     2   -->   2 G_2            
     e(  9 - 10) =    -36.79570  eV     2   -->   2 G_2            
     e( 11 - 11) =    -36.65922  eV     1   --> G_2            
     e( 12 - 12) =    -36.65911  eV     1   --> G_2            
     e( 13 - 13) =    -36.62797  eV     1   --> G_2            
     e( 14 - 14) =    -36.62785  eV     1   --> G_2            
     e( 15 - 16) =    -36.41684  eV     2   -->   2 G_2            
     e( 17 - 18) =    -14.08360  eV     2   -->   2 G_2            
     e( 19 - 20) =    -12.99477  eV     2   -->   2 G_2            
     e( 21 - 22) =    -12.10782  eV     2   -->   2 G_2            
     e( 23 - 24) =    -11.88158  eV     2   -->   2 G_2            
     e( 25 - 26) =     -7.00050  eV     2   -->   2 G_2            
     e( 27 - 28) =     -6.59865  eV     2   -->   2 G_2            
     e( 29 - 30) =     -5.87365  eV     2   -->   2 G_2            
     e( 31 - 32) =     -5.18870  eV     2   -->   2 G_2            
     e( 33 - 34) =     -4.00570  eV     2   -->   2 G_2            
     e( 35 - 35) =     -3.77514  eV     1   --> G_2            
     e( 36 - 36) =     -3.77394  eV     1   --> G_2            
     e( 37 - 37) =     -3.64352  eV     1   --> G_2            
     e( 38 - 38) =     -3.64217  eV     1   --> G_2            
     e( 39 - 39) =     -3.19216  eV     1   --> G_2            
     e( 40 - 40) =     -3.19200  eV     1   --> G_2            
     e( 41 - 41) =     -2.71562  eV     1   --> G_2            
     e( 42 - 42) =     -2.71536  eV     1   --> G_2            
     e( 43 - 43) =     -2.50541  eV     1   --> G_2            
     e( 44 - 44) =     -2.50480  eV     1   --> G_2            
     e( 45 - 45) =     -2.04131  eV     1   --> G_2            
     e( 46 - 46) =     -2.04075  eV     1   --> G_2            
     e( 47 - 47) =     -1.77738  eV     1   --> G_2            
     e( 48 - 48) =     -1.77706  eV     1   --> G_2            
     e( 49 - 49) =     -1.28947  eV     1   --> G_2            
     e( 50 - 50) =     -1.28910  eV     1   --> G_2            
     e( 51 - 51) =     -0.99746  eV     1   --> G_2            
     e( 52 - 52) =     -0.99733  eV     1   --> G_2            
     e( 53 - 53) =     -0.44552  eV     1   --> G_2            
     e( 54 - 54) =     -0.44509  eV     1   --> G_2            
     e( 55 - 55) =      0.56153  eV     1   --> G_2            
     e( 56 - 56) =      0.56280  eV     1   --> G_2            
     e( 57 - 57) =      0.74899  eV     1   --> G_2            
     e( 58 - 58) =      0.75010  eV     1   --> G_2            
     e( 59 - 59) =      1.09019  eV     1   --> G_2            
     e( 60 - 60) =      1.09036  eV     1   --> G_2            
     e( 61 - 61) =      1.46297  eV     1   --> G_2            
     e( 62 - 62) =      1.46344  eV     1   --> G_2            

 **************************************************************************

 **************************************************************************

                    xk=(   0.05000,   0.00000,  -0.05833  )

     Band symmetry, C_1 (1)     double point group:

     e(  1 -  2) =    -74.98936  eV     2   -->   2 G_2            
     e(  3 -  4) =    -74.95251  eV     2   -->   2 G_2            
     e(  5 -  6) =    -46.43879  eV     2   -->   2 G_2            
     e(  7 -  8) =    -46.34222  eV     2   -->   2 G_2            
     e(  9 - 10) =    -36.79463  eV     2   -->   2 G_2            
     e( 11 - 12) =    -36.65477  eV     2   -->   2 G_2            
     e( 13 - 14) =    -36.63203  eV     2   -->   2 G_2            
     e( 15 - 16) =    -36.41506  eV     2   -->   2 G_2            
     e( 17 - 18) =    -14.11989  eV     2   -->   2 G_2            
     e( 19 - 20) =    -13.01689  eV     2   -->   2 G_2            
     e( 21 - 22) =    -12.12305  eV     2   -->   2 G_2            
     e( 23 - 24) =    -11.90433  eV     2   -->   2 G_2            
     e( 25 - 26) =     -7.03607  eV     2   -->   2 G_2            
     e( 27 - 28) =     -6.64147  eV     2   -->   2 G_2            
     e( 29 - 30) =     -5.88513  eV     2   -->   2 G_2            
     e( 31 - 32) =     -5.20563  eV     2   -->   2 G_2            
     e( 33 - 34) =     -3.98787  eV     2   -->   2 G_2            
     e( 35 - 35) =     -3.71935  eV     1   --> G_2            
     e( 36 - 36) =     -3.71853  eV     1   --> G_2            
     e( 37 - 37) =     -3.56624  eV     1   --> G_2            
     e( 38 - 38) =     -3.56527  eV     1   --> G_2            
     e( 39 - 39) =     -3.14891  eV     1   --> G_2            
     e( 40 - 40) =     -3.14881  eV     1   --> G_2            
     e( 41 - 41) =     -2.71015  eV     1   --> G_2            
     e( 42 - 42) =     -2.70995  eV     1   --> G_2            
     e( 43 - 43) =     -2.49444  eV     1   --> G_2            
     e( 44 - 44) =     -2.49406  eV     1   --> G_2            
     e( 45 - 45) =     -2.00593  eV     1   --> G_2            
     e( 46 - 46) =     -2.00565  eV     1   --> G_2            
     e( 47 - 47) =     -1.67700  eV     1   --> G_2            
     e( 48 - 48) =     -1.67662  eV     1   --> G_2            
     e( 49 - 49) =     -1.28659  eV     1   --> G_2            
     e( 50 - 50) =     -1.28623  eV     1   --> G_2            
     e( 51 - 51) =     -0.96848  eV     1   --> G_2            
     e( 52 - 52) =     -0.96837  eV     1   --> G_2            
     e( 53 - 53) =     -0.20468  eV     1   --> G_2            
     e( 54 - 54) =     -0.20435  eV     1   --> G_2            
     e( 55 - 55) =      0.49512  eV     1   --> G_2            
     e( 56 - 56) =      0.49624  eV     1   --> G_2            
     e( 57 - 57) =      0.68112  eV     1   --> G_2            
     e( 58 - 58) =      0.68205  eV     1   --> G_2            
     e( 59 - 60) =      1.05839  eV     2   -->   2 G_2            
     e( 61 - 61) =      1.51891  eV     1   --> G_2            
     e( 62 - 62) =      1.51931  eV     1   --> G_2            

 **************************************************************************

 **************************************************************************

                    xk=(   0.02500,   0.00000,  -0.05833  )

     Band symmetry, C_1 (1)     double point group:

     e(  1 -  2) =    -74.98957  eV     2   -->   2 G_2            
     e(  3 -  4) =    -74.95237  eV     2   -->   2 G_2            
     e(  5 -  6) =    -46.43904  eV     2   -->   2 G_2            
     e(  7 -  8) =    -46.34157  eV     2   -->   2 G_2            
     e(  9 - 10) =    -36.79396  eV     2   -->   2 G_2            
     e( 11 - 12) =    -36.65127  eV     2   -->   2 G_2            
     e( 13 - 14) =    -36.63528  eV     2   -->   2 G_2            
     e( 15 - 16) =    -36.41397  eV     2   -->   2 G_2            
     e( 17 - 18) =    -14.14174  eV     2   -->   2 G_2            
     e( 19 - 20) =    -13.03025  eV     2   -->   2 G_2            
     e( 21 - 22) =    -12.13232  eV     2   -->   2 G_2            
     e( 23 - 24) =    -11.91818  eV     2   -->   2 G_2            
     e( 25 - 26) =     -7.05768  eV     2   -->   2 G_2            
     e( 27 - 28) =     -6.66738  eV     2   -->   2 G_2            
     e( 29 - 30) =     -5.89241  eV     2   -->   2 G_2            
     e( 31 - 32) =     -5.21619  eV     2   -->   2 G_2            
     e( 33 - 34) =     -3.97834  eV     2   -->   2 G_2            
     e( 35 - 35) =     -3.68774  eV     1   --> G_2            
     e( 36 - 36) =     -3.68735  eV     1   --> G_2            
     e( 37 - 37) =     -3.50557  eV     1   --> G_2            
     e( 38 - 38) =     -3.50507  eV     1   --> G_2            
     e( 39 - 40) =     -3.13439  eV     2   -->   2 G_2            
     e( 41 - 41) =     -2.70899  eV     1   --> G_2            
     e( 42 - 42) =     -2.70888  eV     1   --> G_2            
     e( 43 - 43) =     -2.49432  eV     1   --> G_2            
     e( 44 - 44) =     -2.49414  eV     1   --> G_2            
     e( 45 - 45) =     -1.98768  eV     1   --> G_2            
     e( 46 - 46) =     -1.98756  eV     1   --> G_2            
     e( 47 - 47) =     -1.58836  eV     1   --> G_2            
     e( 48 - 48) =     -1.58808  eV     1   --> G_2            
     e( 49 - 49) =     -1.29272  eV     1   --> G_2            
     e( 50 - 50) =     -1.29247  eV     1   --> G_2            
     e( 51 - 52) =     -0.94764  eV     2   -->   2 G_2            
     e( 53 - 53) =      0.00796  eV     1   --> G_2            
     e( 54 - 54) =      0.00821  eV     1   --> G_2            
     e( 55 - 55) =      0.39173  eV     1   --> G_2            
     e( 56 - 56) =      0.39245  eV     1   --> G_2            
     e( 57 - 57) =      0.62270  eV     1   --> G_2            
     e( 58 - 58) =      0.62319  eV     1   --> G_2            
     e( 59 - 60) =      1.04214  eV     2   -->   2 G_2            
     e( 61 - 61) =      1.57001  eV     1   --> G_2            
     e( 62 - 62) =      1.57024  eV     1   --> G_2            

 **************************************************************************

 **************************************************************************

                    xk=(   0.00000,   0.00000,  -0.05833  )

     double point group C_s (m)    
     there are  4 classes and  2 irreducible representations
     the character table:

       E     -E    s     -s   
                              
G_3    1.00 -1.00  0.00  0.00
G_4    1.00 -1.00  0.00  0.00

     imaginary part

       E     -E    s     -s   
                              
G_3    0.00  0.00  1.00 -1.00
G_4    0.00  0.00 -1.00  1.00

     the symmetry operations in each class and the name of the first element:

     E             1
                                                                 
     -E           -1
                                                                 
     s             2
                                                                 
     -s           -2
                                                                 

     Band symmetry, C_s (m)     double point group:

     e(  1 -  2) =    -74.98964  eV     2   --> G_3            
     e(  1 -  2) =    -74.98964  eV     2   --> G_4            
     e(  3 -  4) =    -74.95233  eV     2   --> G_3            
     e(  3 -  4) =    -74.95233  eV     2   --> G_4            
     e(  5 -  6) =    -46.43913  eV     2   --> G_3            
     e(  5 -  6) =    -46.43913  eV     2   --> G_4            
     e(  7 -  8) =    -46.34135  eV     2   --> G_3            
     e(  7 -  8) =    -46.34135  eV     2   --> G_4            
     e(  9 - 10) =    -36.79373  eV     2   --> G_3            
     e(  9 - 10) =    -36.79373  eV     2   --> G_4            
     e( 11 - 12) =    -36.64975  eV     2   --> G_3            
     e( 11 - 12) =    -36.64975  eV     2   --> G_4            
     e( 13 - 14) =    -36.63666  eV     2   --> G_3            
     e( 13 - 14) =    -36.63666  eV     2   --> G_4            
     e( 15 - 16) =    -36.41361  eV     2   --> G_3            
     e( 15 - 16) =    -36.41361  eV     2   --> G_4            
     e( 17 - 18) =    -14.14903  eV     2   --> G_3            
     e( 17 - 18) =    -14.14903  eV     2   --> G_4            
     e( 19 - 20) =    -13.03472  eV     2   --> G_3            
     e( 19 - 20) =    -13.03472  eV     2   --> G_4            
     e( 21 - 22) =    -12.13542  eV     2   --> G_3            
     e( 21 - 22) =    -12.13542  eV     2   --> G_4            
     e( 23 - 24) =    -11.92284  eV     2   --> G_3            
     e( 23 - 24) =    -11.92284  eV     2   --> G_4            
     e( 25 - 26) =     -7.06492  eV     2   --> G_3            
     e( 25 - 26) =     -7.06492  eV     2   --> G_4            
     e( 27 - 28) =     -6.67605  eV     2   --> G_3            
     e( 27 - 28) =     -6.67605  eV     2   --> G_4            
     e( 29 - 30) =     -5.89489  eV     2   --> G_3            
     e( 29 - 30) =     -5.89489  eV     2   --> G_4            
     e( 31 - 32) =     -5.21977  eV     2   --> G_3            
     e( 31 - 32) =     -5.21977  eV     2   --> G_4            
     e( 33 - 34) =     -3.97537  eV     2   --> G_3            
     e( 33 - 34) =     -3.97537  eV     2   --> G_4            
     e( 35 - 36) =     -3.67723  eV     2   --> G_3            
     e( 35 - 36) =     -3.67723  eV     2   --> G_4            
     e( 37 - 38) =     -3.48191  eV     2   --> G_3            
     e( 37 - 38) =     -3.48191  eV     2   --> G_4            
     e( 39 - 40) =     -3.13246  eV     2   --> G_3            
     e( 39 - 40) =     -3.13246  eV     2   --> G_4            
     e( 41 - 42) =     -2.70897  eV     2   --> G_3            
     e( 41 - 42) =     -2.70897  eV     2   --> G_4            
     e( 43 - 44) =     -2.49549  eV     2   --> G_3            
     e( 43 - 44) =     -2.49549  eV     2   --> G_4            
     e( 45 - 46) =     -1.98205  eV     2   --> G_3            
     e( 45 - 46) =     -1.98205  eV     2   --> G_4            
     e( 47 - 48) =     -1.55137  eV     2   --> G_3            
     e( 47 - 48) =     -1.55137  eV     2   --> G_4            
     e( 49 - 50) =     -1.29808  eV     2   --> G_3            
     e( 49 - 50) =     -1.29808  eV     2   --> G_4            
     e( 51 - 52) =     -0.93985  eV     2   --> G_3            
     e( 51 - 52) =     -0.93985  eV     2   --> G_4            
     e( 53 - 54) =      0.13548  eV     2   --> G_3            
     e( 53 - 54) =      0.13548  eV     2   --> G_4            
     e( 55 - 56) =      0.30183  eV     2   --> G_3            
     e( 55 - 56) =      0.30183  eV     2   --> G_4            
     e( 57 - 58) =      0.59959  eV     2   --> G_3            
     e( 57 - 58) =      0.59959  eV     2   --> G_4            
     e( 59 - 60) =      1.03730  eV     2   --> G_3            
     e( 59 - 60) =      1.03730  eV     2   --> G_4            
     e( 61 - 62) =      1.59106  eV     2   --> G_3            
     e( 61 - 62) =      1.59106  eV     2   --> G_4            

 **************************************************************************

     BANDS        :  10m57.08s CPU  14m 6.66s WALL


   This run was terminated on:  16:48:16  27Jun2025            

=------------------------------------------------------------------------------=
   JOB DONE.
=------------------------------------------------------------------------------=
