
     Program PWSCF v.7.1 starts on 28Jun2025 at  1: 9:15 

     This program is part of the open-source Quantum ESPRESSO suite
     for quantum simulation of materials; please cite
         "P. Giannozzi et al., J. Phys.:Condens. Matter 21 395502 (2009);
         "P. Giannozzi et al., J. Phys.:Condens. Matter 29 465901 (2017);
         "P. Giannozzi et al., J. Chem. Phys. 152 154105 (2020);
          URL http://www.quantum-espresso.org", 
     in publications or presentations arising from this work. More details at
     http://www.quantum-espresso.org/quote

     Parallel version (MPI & OpenMP), running on     128 processor cores
     Number of MPI processes:               128
     Threads/MPI process:                     1

     MPI processes distributed on     1 nodes
     505845 MiB available memory on the printing compute node when the environment starts

     Waiting for input...
     Reading input from standard input

     Current dimensions of program PWSCF are:
     Max number of different atomic species (ntypx) = 10
     Max number of k-points (npk) =  40000
     Max angular momentum in pseudopotentials (lmaxx) =  4
     file C.pbe-n-kjpaw_psl.1.0.0.UPF: wavefunction(s)  2S 2P renormalized
     file Te.pbe-n-kjpaw_psl.1.0.0.UPF: wavefunction(s)  5S 5P renormalized
     file W.pbe-spn-kjpaw_psl.1.0.0.UPF: wavefunction(s)  6S 5P 5D renormalized

     R & G space division:  proc/nbgrp/npool/nimage =     128
     Subspace diagonalization in iterative solution of the eigenvalue problem:
     one sub-group per band group will be used
     scalapack distributed-memory algorithm (size of sub-group:  5*  5 procs)


     Parallelization info
     --------------------
     sticks:   dense  smooth     PW     G-vecs:    dense   smooth      PW
     Min         238     114     29                64104    21314    2775
     Max         239     115     30                64115    21323    2788
     Sum       30507   14643   3771              8205749  2728805  355915

     Using Slab Decomposition



     bravais-lattice index     =            0
     lattice parameter (alat)  =      23.4893  a.u.
     unit-cell volume          =   43463.4118 (a.u.)^3
     number of atoms/cell      =          140
     number of atomic types    =            3
     number of electrons       =       840.00
     number of Kohn-Sham states=          504
     kinetic-energy cutoff     =      60.0000  Ry
     charge density cutoff     =     500.0000  Ry
     scf convergence threshold =      1.0E-09
     mixing beta               =       0.9000
     number of iterations used =            8  local-TF  mixing
     energy convergence thresh.=      1.0E-04
     force convergence thresh. =      1.0E-03
     Exchange-correlation= SLA  PW   PBX  PBC
                           (   1   4   3   4   0   0   0)
     nstep                     =           50


     celldm(1)=  23.489296  celldm(2)=   0.000000  celldm(3)=   0.000000
     celldm(4)=   0.000000  celldm(5)=   0.000000  celldm(6)=   0.000000

     crystal axes: (cart. coord. in units of alat)
               a(1) = (   1.000000   0.000000   0.000000 )  
               a(2) = (   0.000000   1.389516   0.000000 )  
               a(3) = (   0.000000   0.000000   2.413516 )  

     reciprocal axes: (cart. coord. in units 2 pi/alat)
               b(1) = (  1.000000  0.000000  0.000000 )  
               b(2) = (  0.000000  0.719675  0.000000 )  
               b(3) = (  0.000000  0.000000  0.414333 )  


     PseudoPot. # 1 for C  read from file:
     ./C.pbe-n-kjpaw_psl.1.0.0.UPF
     MD5 check sum: 5f16ad9a65e90284d1d834d4ab3b0f7d
     Pseudo is Projector augmented-wave + core cor, Zval =  4.0
     Generated using &quot;atomic&quot; code by A. Dal Corso  v.6.3
     Shape of augmentation charge: PSQ
     Using radial grid of 1073 points,  4 beta functions with: 
                l(1) =   0
                l(2) =   0
                l(3) =   1
                l(4) =   1
     Q(r) pseudized with 0 coefficients 


     PseudoPot. # 2 for Te read from file:
     ./Te.pbe-n-kjpaw_psl.1.0.0.UPF
     MD5 check sum: 66247bff2bd9dbf220fbb0bf5ab56e9d
     Pseudo is Projector augmented-wave + core cor, Zval =  6.0
     Generated using &quot;atomic&quot; code by A. Dal Corso  v.6.3
     Shape of augmentation charge: PSQ
     Using radial grid of 1245 points,  6 beta functions with: 
                l(1) =   0
                l(2) =   0
                l(3) =   1
                l(4) =   1
                l(5) =   2
                l(6) =   2
     Q(r) pseudized with 0 coefficients 


     PseudoPot. # 3 for W  read from file:
     ./W.pbe-spn-kjpaw_psl.1.0.0.UPF
     MD5 check sum: 03c3df5b60893f488392c7401945500a
     Pseudo is Projector augmented-wave + core cor, Zval = 14.0
     Generated using &quot;atomic&quot; code by A. Dal Corso  v.6.2.2
     Shape of augmentation charge: PSQ
     Using radial grid of 1273 points,  6 beta functions with: 
                l(1) =   0
                l(2) =   0
                l(3) =   1
                l(4) =   1
                l(5) =   2
                l(6) =   2
     Q(r) pseudized with 0 coefficients 


     atomic species   valence    mass     pseudopotential
        C              4.00    12.01070     C ( 1.00)
        Te             6.00   127.60000     Te( 1.00)
        W             14.00   183.84000     W ( 1.00)

     No symmetry found


                                    s                        frac. trans.

      isym =  1     identity                                     

 cryst.   s( 1) = (     1          0          0      )
                  (     0          1          0      )
                  (     0          0          1      )

 cart.    s( 1) = (  1.0000000  0.0000000  0.0000000 )
                  (  0.0000000  1.0000000  0.0000000 )
                  (  0.0000000  0.0000000  1.0000000 )


   Cartesian axes

     site n.     atom                  positions (alat units)
         1           W   tau(   1) = (   0.0505454   0.0000000   0.5661300  )
         2           W   tau(   2) = (   0.0505454   0.5558066   0.5661300  )
         3           W   tau(   3) = (   0.0505454   1.1116132   0.5661300  )
         4           W   tau(   4) = (   0.0505454   0.2779033   0.5661300  )
         5           W   tau(   5) = (   0.5505454   0.0000000   0.5661300  )
         6           W   tau(   6) = (   0.5505454   0.5558066   0.5661300  )
         7           W   tau(   7) = (   0.5505454   1.1116132   0.5661300  )
         8           W   tau(   8) = (   0.5505454   0.2779033   0.5661300  )
         9           W   tau(   9) = (   0.0505454   0.8337100   0.5661300  )
        10           W   tau(  10) = (   0.5505454   0.8337100   0.5661300  )
        11           W   tau(  11) = (   0.7280573   0.1389516   0.5491062  )
        12           W   tau(  12) = (   0.7280573   0.6947582   0.5491062  )
        13           W   tau(  13) = (   0.7280573   1.2505648   0.5491062  )
        14           W   tau(  14) = (   0.7280573   0.4168549   0.5491062  )
        15           W   tau(  15) = (   0.2280573   0.1389516   0.5491062  )
        16           W   tau(  16) = (   0.2280573   0.6947582   0.5491062  )
        17           W   tau(  17) = (   0.2280573   1.2505648   0.5491062  )
        18           W   tau(  18) = (   0.2280573   0.4168549   0.5491062  )
        19           W   tau(  19) = (   0.2280572   0.9726615   0.5491062  )
        20           W   tau(  20) = (   0.7280572   0.9726615   0.5491062  )
        21           Te  tau(  21) = (   0.9256733   0.1389516   0.4385626  )
        22           Te  tau(  22) = (   0.9256733   0.6947582   0.4385626  )
        23           Te  tau(  23) = (   0.9256733   1.2505648   0.4385626  )
        24           Te  tau(  24) = (   0.9256733   0.4168549   0.4385626  )
        25           Te  tau(  25) = (   0.4256733   0.1389516   0.4385626  )
        26           Te  tau(  26) = (   0.4256733   0.6947582   0.4385626  )
        27           Te  tau(  27) = (   0.4256733   1.2505648   0.4385626  )
        28           Te  tau(  28) = (   0.4256733   0.4168549   0.4385626  )
        29           Te  tau(  29) = (   0.4256734   0.9726615   0.4385626  )
        30           Te  tau(  30) = (   0.9256734   0.9726615   0.4385626  )
        31           Te  tau(  31) = (   0.3529420   0.0000000   0.6767931  )
        32           Te  tau(  32) = (   0.3529420   0.5558066   0.6767931  )
        33           Te  tau(  33) = (   0.3529420   1.1116132   0.6767931  )
        34           Te  tau(  34) = (   0.3529420   0.2779033   0.6767931  )
        35           Te  tau(  35) = (   0.8529420   0.0000000   0.6767931  )
        36           Te  tau(  36) = (   0.8529420   0.5558066   0.6767931  )
        37           Te  tau(  37) = (   0.8529420   1.1116132   0.6767931  )
        38           Te  tau(  38) = (   0.8529420   0.2779033   0.6767931  )
        39           Te  tau(  39) = (   0.3529421   0.8337100   0.6767931  )
        40           Te  tau(  40) = (   0.8529421   0.8337100   0.6767931  )
        41           Te  tau(  41) = (   0.1788814   0.0000000   0.3882302  )
        42           Te  tau(  42) = (   0.1788814   0.5558066   0.3882302  )
        43           Te  tau(  43) = (   0.1788814   1.1116132   0.3882302  )
        44           Te  tau(  44) = (   0.1788814   0.2779033   0.3882302  )
        45           Te  tau(  45) = (   0.6788814   0.0000000   0.3882302  )
        46           Te  tau(  46) = (   0.6788814   0.5558066   0.3882302  )
        47           Te  tau(  47) = (   0.6788814   1.1116132   0.3882302  )
        48           Te  tau(  48) = (   0.6788814   0.2779033   0.3882302  )
        49           Te  tau(  49) = (   0.1788815   0.8337100   0.3882302  )
        50           Te  tau(  50) = (   0.6788815   0.8337100   0.3882302  )
        51           Te  tau(  51) = (   0.5996006   0.1389516   0.7269627  )
        52           Te  tau(  52) = (   0.5996006   0.6947582   0.7269627  )
        53           Te  tau(  53) = (   0.5996006   1.2505649   0.7269627  )
        54           Te  tau(  54) = (   0.5996006   0.4168549   0.7269627  )
        55           Te  tau(  55) = (   0.0996006   0.1389516   0.7269627  )
        56           Te  tau(  56) = (   0.0996006   0.6947582   0.7269627  )
        57           Te  tau(  57) = (   0.0996006   1.2505649   0.7269627  )
        58           Te  tau(  58) = (   0.0996006   0.4168549   0.7269627  )
        59           Te  tau(  59) = (   0.0996006   0.9726615   0.7269627  )
        60           Te  tau(  60) = (   0.5996005   0.9726615   0.7269627  )
        61           C   tau(  61) = (   0.0000000   0.0000000   0.9251810  )
        62           C   tau(  62) = (   0.0000000   0.3473792   0.9251810  )
        63           C   tau(  63) = (   0.0000000   0.6947582   0.9251810  )
        64           C   tau(  64) = (   0.0000000   1.0421374   0.9251810  )
        65           C   tau(  65) = (   0.2000000   0.0000000   0.9251810  )
        66           C   tau(  66) = (   0.2000000   0.3473792   0.9251810  )
        67           C   tau(  67) = (   0.2000000   0.6947582   0.9251810  )
        68           C   tau(  68) = (   0.2000000   1.0421374   0.9251810  )
        69           C   tau(  69) = (   0.4000000   0.0000000   0.9251810  )
        70           C   tau(  70) = (   0.4000000   0.3473792   0.9251810  )
        71           C   tau(  71) = (   0.4000000   0.6947582   0.9251810  )
        72           C   tau(  72) = (   0.4000000   1.0421374   0.9251810  )
        73           C   tau(  73) = (   0.6000000   0.0000000   0.9251810  )
        74           C   tau(  74) = (   0.6000000   0.3473792   0.9251810  )
        75           C   tau(  75) = (   0.6000000   0.6947582   0.9251810  )
        76           C   tau(  76) = (   0.6000000   1.0421374   0.9251810  )
        77           C   tau(  77) = (   0.8000000   0.0000000   0.9251810  )
        78           C   tau(  78) = (   0.8000000   0.3473792   0.9251810  )
        79           C   tau(  79) = (   0.8000000   0.6947582   0.9251810  )
        80           C   tau(  80) = (   0.8000000   1.0421374   0.9251810  )
        81           C   tau(  81) = (   0.0000000   0.2315861   0.9251810  )
        82           C   tau(  82) = (   0.0000000   0.5789652   0.9251810  )
        83           C   tau(  83) = (   0.0000000   0.9263444   0.9251810  )
        84           C   tau(  84) = (   0.0000000   1.2737235   0.9251810  )
        85           C   tau(  85) = (   0.2000000   0.2315861   0.9251810  )
        86           C   tau(  86) = (   0.2000000   0.5789652   0.9251810  )
        87           C   tau(  87) = (   0.2000000   0.9263444   0.9251810  )
        88           C   tau(  88) = (   0.2000000   1.2737235   0.9251810  )
        89           C   tau(  89) = (   0.4000000   0.2315861   0.9251810  )
        90           C   tau(  90) = (   0.4000000   0.5789652   0.9251810  )
        91           C   tau(  91) = (   0.4000000   0.9263444   0.9251810  )
        92           C   tau(  92) = (   0.4000000   1.2737235   0.9251810  )
        93           C   tau(  93) = (   0.6000000   0.2315861   0.9251810  )
        94           C   tau(  94) = (   0.6000000   0.5789652   0.9251810  )
        95           C   tau(  95) = (   0.6000000   0.9263444   0.9251810  )
        96           C   tau(  96) = (   0.6000000   1.2737235   0.9251810  )
        97           C   tau(  97) = (   0.8000000   0.2315861   0.9251810  )
        98           C   tau(  98) = (   0.8000000   0.5789652   0.9251810  )
        99           C   tau(  99) = (   0.8000000   0.9263444   0.9251810  )
       100           C   tau( 100) = (   0.8000000   1.2737235   0.9251810  )
       101           C   tau( 101) = (   0.1000000   0.1736895   0.9251810  )
       102           C   tau( 102) = (   0.1000000   0.5210687   0.9251810  )
       103           C   tau( 103) = (   0.1000000   0.8684478   0.9251810  )
       104           C   tau( 104) = (   0.1000000   1.2158269   0.9251810  )
       105           C   tau( 105) = (   0.3000000   0.1736895   0.9251810  )
       106           C   tau( 106) = (   0.3000000   0.5210687   0.9251810  )
       107           C   tau( 107) = (   0.3000000   0.8684478   0.9251810  )
       108           C   tau( 108) = (   0.3000000   1.2158269   0.9251810  )
       109           C   tau( 109) = (   0.5000000   0.1736895   0.9251810  )
       110           C   tau( 110) = (   0.5000000   0.5210687   0.9251810  )
       111           C   tau( 111) = (   0.5000000   0.8684478   0.9251810  )
       112           C   tau( 112) = (   0.5000000   1.2158269   0.9251810  )
       113           C   tau( 113) = (   0.7000000   0.1736895   0.9251810  )
       114           C   tau( 114) = (   0.7000000   0.5210687   0.9251810  )
       115           C   tau( 115) = (   0.7000000   0.8684478   0.9251810  )
       116           C   tau( 116) = (   0.7000000   1.2158269   0.9251810  )
       117           C   tau( 117) = (   0.9000000   0.1736895   0.9251810  )
       118           C   tau( 118) = (   0.9000000   0.5210687   0.9251810  )
       119           C   tau( 119) = (   0.9000000   0.8684478   0.9251810  )
       120           C   tau( 120) = (   0.9000000   1.2158269   0.9251810  )
       121           C   tau( 121) = (   0.1000000   0.0578965   0.9251810  )
       122           C   tau( 122) = (   0.1000000   0.4052756   0.9251810  )
       123           C   tau( 123) = (   0.1000000   0.7526548   0.9251810  )
       124           C   tau( 124) = (   0.1000000   1.1000339   0.9251810  )
       125           C   tau( 125) = (   0.3000000   0.0578965   0.9251810  )
       126           C   tau( 126) = (   0.3000000   0.4052756   0.9251810  )
       127           C   tau( 127) = (   0.3000000   0.7526548   0.9251810  )
       128           C   tau( 128) = (   0.3000000   1.1000339   0.9251810  )
       129           C   tau( 129) = (   0.5000000   0.0578965   0.9251810  )
       130           C   tau( 130) = (   0.5000000   0.4052756   0.9251810  )
       131           C   tau( 131) = (   0.5000000   0.7526548   0.9251810  )
       132           C   tau( 132) = (   0.5000000   1.1000339   0.9251810  )
       133           C   tau( 133) = (   0.7000000   0.0578965   0.9251810  )
       134           C   tau( 134) = (   0.7000000   0.4052756   0.9251810  )
       135           C   tau( 135) = (   0.7000000   0.7526548   0.9251810  )
       136           C   tau( 136) = (   0.7000000   1.1000339   0.9251810  )
       137           C   tau( 137) = (   0.9000000   0.0578965   0.9251810  )
       138           C   tau( 138) = (   0.9000000   0.4052756   0.9251810  )
       139           C   tau( 139) = (   0.9000000   0.7526548   0.9251810  )
       140           C   tau( 140) = (   0.9000000   1.1000339   0.9251810  )

     --------------------------------------------
     DFT-D3 Dispersion Correction (3-body terms):
     --------------------------------------------
       Reference C6 values for interpolation: 

         atom   Coordination number   C6
         C          0.000            98.23
         C          0.987            86.49
         C          1.998            58.72
         C          2.999            51.56
         C          3.984            36.41
         Te         0.000           851.07
         Te         0.981           850.20
         Te         1.964           837.16
         W          0.000          1628.72
         W          1.929          1086.81
         W         10.915           796.19

       Values used:

         atom   Coordination number  R0_AB[au]  C6      C8
         W          8.379            3.766    796.19 128250.55
         W          8.379            3.766    796.19 128250.55
         W          8.379            3.766    796.19 128250.55
         W          8.379            3.766    796.19 128250.55
         W          8.379            3.766    796.19 128250.55
         W          8.379            3.766    796.19 128250.55
         W          8.379            3.766    796.19 128250.55
         W          8.379            3.766    796.19 128250.55
         W          8.379            3.766    796.19 128250.55
         W          8.379            3.766    796.19 128250.55
         W          8.376            3.766    796.19 128250.55
         W          8.376            3.766    796.19 128250.55
         W          8.376            3.766    796.19 128250.55
         W          8.376            3.766    796.19 128250.55
         W          8.376            3.766    796.19 128250.55
         W          8.376            3.766    796.19 128250.55
         W          8.376            3.766    796.19 128250.55
         W          8.376            3.766    796.19 128250.55
         W          8.376            3.766    796.19 128250.55
         W          8.376            3.766    796.19 128250.55
         Te         4.785            3.676    837.16  84978.05
         Te         4.785            3.676    837.16  84978.05
         Te         4.785            3.676    837.16  84978.05
         Te         4.785            3.676    837.16  84978.05
         Te         4.785            3.676    837.16  84978.05
         Te         4.785            3.676    837.16  84978.05
         Te         4.785            3.676    837.16  84978.05
         Te         4.785            3.676    837.16  84978.05
         Te         4.785            3.676    837.16  84978.05
         Te         4.785            3.676    837.16  84978.05
         Te         4.991            3.676    837.16  84978.05
         Te         4.994            3.676    837.16  84978.05
         Te         4.987            3.676    837.16  84978.05
         Te         4.983            3.676    837.16  84978.05
         Te         4.990            3.676    837.16  84978.05
         Te         4.994            3.676    837.16  84978.05
         Te         4.989            3.676    837.16  84978.05
         Te         4.981            3.676    837.16  84978.05
         Te         4.982            3.676    837.16  84978.05
         Te         4.984            3.676    837.16  84978.05
         Te         4.375            3.676    837.16  84978.05
         Te         4.375            3.676    837.16  84978.05
         Te         4.375            3.676    837.16  84978.05
         Te         4.375            3.676    837.16  84978.05
         Te         4.375            3.676    837.16  84978.05
         Te         4.375            3.676    837.16  84978.05
         Te         4.375            3.676    837.16  84978.05
         Te         4.375            3.676    837.16  84978.05
         Te         4.375            3.676    837.16  84978.05
         Te         4.375            3.676    837.16  84978.05
         Te         5.873            3.676    837.16  84978.05
         Te         5.986            3.676    837.16  84978.05
         Te         5.992            3.676    837.16  84978.05
         Te         5.940            3.676    837.16  84978.05
         Te         6.005            3.676    837.16  84978.05
         Te         5.967            3.676    837.16  84978.05
         Te         5.992            3.676    837.16  84978.05
         Te         5.988            3.676    837.16  84978.05
         Te         5.849            3.676    837.16  84978.05
         Te         6.013            3.676    837.16  84978.05
         C          3.384            2.750     46.63   1348.63
         C          3.497            2.750     43.38   1254.61
         C          3.624            2.750     40.01   1157.23
         C          3.497            2.750     43.38   1254.61
         C          3.381            2.750     46.71   1351.00
         C          3.492            2.750     43.52   1258.67
         C          3.618            2.750     40.15   1161.16
         C          3.492            2.750     43.52   1258.67
         C          3.361            2.750     47.23   1365.83
         C          3.341            2.750     47.69   1379.37
         C          3.326            2.750     48.04   1389.33
         C          3.341            2.750     47.69   1379.37
         C          3.526            2.750     42.51   1229.48
         C          3.839            2.750     37.23   1076.67
         C          4.042            2.750     36.59   1058.11
         C          3.839            2.750     37.23   1076.67
         C          3.357            2.750     47.33   1368.78
         C          3.339            2.750     47.75   1381.13
         C          3.324            2.750     48.07   1390.25
         C          3.339            2.750     47.75   1381.13
         C          3.438            2.750     45.13   1305.29
         C          3.398            2.750     46.26   1337.95
         C          3.559            2.750     41.59   1202.84
         C          3.606            2.750     40.40   1168.52
         C          3.434            2.750     45.25   1308.57
         C          3.395            2.750     46.35   1340.56
         C          3.554            2.750     41.74   1207.16
         C          3.600            2.750     40.54   1172.61
         C          3.351            2.750     47.48   1373.09
         C          3.358            2.750     47.30   1367.88
         C          3.333            2.750     47.88   1384.75
         C          3.328            2.750     48.00   1388.18
         C          3.695            2.750     38.70   1119.28
         C          3.573            2.750     41.22   1192.26
         C          3.954            2.750     36.75   1062.94
         C          4.021            2.750     36.62   1058.99
         C          3.347            2.750     47.56   1375.40
         C          3.354            2.750     47.39   1370.65
         C          3.331            2.750     47.92   1386.05
         C          3.326            2.750     48.03   1389.19
         C          3.994            2.750     36.66   1060.37
         C          3.627            2.750     39.94   1155.08
         C          3.627            2.750     39.94   1155.08
         C          3.994            2.750     36.66   1060.37
         C          3.328            2.750     47.99   1387.88
         C          3.351            2.750     47.46   1372.77
         C          3.351            2.750     47.46   1372.77
         C          3.328            2.750     47.99   1387.88
         C          3.586            2.750     40.90   1182.86
         C          3.415            2.750     45.79   1324.37
         C          3.415            2.750     45.79   1324.37
         C          3.586            2.750     40.90   1182.86
         C          3.580            2.750     41.04   1187.09
         C          3.412            2.750     45.89   1327.27
         C          3.412            2.750     45.89   1327.27
         C          3.580            2.750     41.04   1187.08
         C          3.330            2.750     47.95   1386.74
         C          3.355            2.750     47.38   1370.21
         C          3.355            2.750     47.38   1370.21
         C          3.330            2.750     47.95   1386.74
         C          3.768            2.750     37.79   1092.85
         C          4.037            2.750     36.59   1058.32
         C          3.903            2.750     36.92   1067.73
         C          3.538            2.750     42.17   1219.60
         C          3.343            2.750     47.65   1378.27
         C          3.325            2.750     48.06   1389.99
         C          3.335            2.750     47.85   1383.77
         C          3.356            2.750     47.34   1369.27
         C          3.466            2.750     44.31   1281.44
         C          3.619            2.750     40.11   1160.03
         C          3.529            2.750     42.44   1227.46
         C          3.388            2.750     46.54   1345.98
         C          3.461            2.750     44.44   1285.14
         C          3.613            2.750     40.25   1164.00
         C          3.524            2.750     42.59   1231.74
         C          3.385            2.750     46.62   1348.41
         C          3.346            2.750     47.58   1376.23
         C          3.326            2.750     48.03   1389.04
         C          3.337            2.750     47.79   1382.26
         C          3.360            2.750     47.24   1366.36

         Molecular C6 ( Ry / a.u.^6 ) =   5044337.16


   Crystallographic axes

     site n.     atom                  positions (cryst. coord.)
         1           W   tau(   1) = (  0.0505454  0.0000000  0.2345665  )
         2           W   tau(   2) = (  0.0505454  0.4000000  0.2345665  )
         3           W   tau(   3) = (  0.0505454  0.8000001  0.2345665  )
         4           W   tau(   4) = (  0.0505454  0.2000000  0.2345665  )
         5           W   tau(   5) = (  0.5505454  0.0000000  0.2345665  )
         6           W   tau(   6) = (  0.5505454  0.4000000  0.2345665  )
         7           W   tau(   7) = (  0.5505454  0.8000001  0.2345665  )
         8           W   tau(   8) = (  0.5505454  0.2000000  0.2345665  )
         9           W   tau(   9) = (  0.0505454  0.6000001  0.2345665  )
        10           W   tau(  10) = (  0.5505454  0.6000001  0.2345665  )
        11           W   tau(  11) = (  0.7280573  0.1000000  0.2275130  )
        12           W   tau(  12) = (  0.7280573  0.5000000  0.2275130  )
        13           W   tau(  13) = (  0.7280573  0.9000000  0.2275130  )
        14           W   tau(  14) = (  0.7280573  0.3000000  0.2275130  )
        15           W   tau(  15) = (  0.2280573  0.1000000  0.2275130  )
        16           W   tau(  16) = (  0.2280573  0.5000000  0.2275130  )
        17           W   tau(  17) = (  0.2280573  0.9000000  0.2275130  )
        18           W   tau(  18) = (  0.2280573  0.3000000  0.2275130  )
        19           W   tau(  19) = (  0.2280572  0.7000000  0.2275130  )
        20           W   tau(  20) = (  0.7280572  0.7000000  0.2275130  )
        21           Te  tau(  21) = (  0.9256733  0.1000000  0.1817111  )
        22           Te  tau(  22) = (  0.9256733  0.5000000  0.1817111  )
        23           Te  tau(  23) = (  0.9256733  0.9000000  0.1817111  )
        24           Te  tau(  24) = (  0.9256733  0.3000000  0.1817111  )
        25           Te  tau(  25) = (  0.4256733  0.1000000  0.1817111  )
        26           Te  tau(  26) = (  0.4256733  0.5000000  0.1817111  )
        27           Te  tau(  27) = (  0.4256733  0.9000000  0.1817111  )
        28           Te  tau(  28) = (  0.4256733  0.3000000  0.1817111  )
        29           Te  tau(  29) = (  0.4256734  0.7000000  0.1817111  )
        30           Te  tau(  30) = (  0.9256734  0.7000000  0.1817111  )
        31           Te  tau(  31) = (  0.3529420  0.0000000  0.2804180  )
        32           Te  tau(  32) = (  0.3529420  0.4000000  0.2804180  )
        33           Te  tau(  33) = (  0.3529420  0.8000001  0.2804180  )
        34           Te  tau(  34) = (  0.3529420  0.2000000  0.2804180  )
        35           Te  tau(  35) = (  0.8529420  0.0000000  0.2804180  )
        36           Te  tau(  36) = (  0.8529420  0.4000000  0.2804180  )
        37           Te  tau(  37) = (  0.8529420  0.8000001  0.2804180  )
        38           Te  tau(  38) = (  0.8529420  0.2000000  0.2804180  )
        39           Te  tau(  39) = (  0.3529421  0.6000001  0.2804180  )
        40           Te  tau(  40) = (  0.8529421  0.6000001  0.2804180  )
        41           Te  tau(  41) = (  0.1788814  0.0000000  0.1608567  )
        42           Te  tau(  42) = (  0.1788814  0.4000000  0.1608567  )
        43           Te  tau(  43) = (  0.1788814  0.8000001  0.1608567  )
        44           Te  tau(  44) = (  0.1788814  0.2000000  0.1608567  )
        45           Te  tau(  45) = (  0.6788814  0.0000000  0.1608567  )
        46           Te  tau(  46) = (  0.6788814  0.4000000  0.1608567  )
        47           Te  tau(  47) = (  0.6788814  0.8000001  0.1608567  )
        48           Te  tau(  48) = (  0.6788814  0.2000000  0.1608567  )
        49           Te  tau(  49) = (  0.1788815  0.6000001  0.1608567  )
        50           Te  tau(  50) = (  0.6788815  0.6000001  0.1608567  )
        51           Te  tau(  51) = (  0.5996006  0.1000000  0.3012049  )
        52           Te  tau(  52) = (  0.5996006  0.5000000  0.3012049  )
        53           Te  tau(  53) = (  0.5996006  0.9000001  0.3012049  )
        54           Te  tau(  54) = (  0.5996006  0.3000000  0.3012049  )
        55           Te  tau(  55) = (  0.0996006  0.1000000  0.3012049  )
        56           Te  tau(  56) = (  0.0996006  0.5000000  0.3012049  )
        57           Te  tau(  57) = (  0.0996006  0.9000001  0.3012049  )
        58           Te  tau(  58) = (  0.0996006  0.3000000  0.3012049  )
        59           Te  tau(  59) = (  0.0996006  0.7000000  0.3012049  )
        60           Te  tau(  60) = (  0.5996005  0.7000000  0.3012049  )
        61           C   tau(  61) = (  0.0000000  0.0000000  0.3833333  )
        62           C   tau(  62) = (  0.0000000  0.2500000  0.3833333  )
        63           C   tau(  63) = (  0.0000000  0.5000000  0.3833333  )
        64           C   tau(  64) = (  0.0000000  0.7500001  0.3833333  )
        65           C   tau(  65) = (  0.2000000  0.0000000  0.3833333  )
        66           C   tau(  66) = (  0.2000000  0.2500000  0.3833333  )
        67           C   tau(  67) = (  0.2000000  0.5000000  0.3833333  )
        68           C   tau(  68) = (  0.2000000  0.7500001  0.3833333  )
        69           C   tau(  69) = (  0.4000000  0.0000000  0.3833333  )
        70           C   tau(  70) = (  0.4000000  0.2500000  0.3833333  )
        71           C   tau(  71) = (  0.4000000  0.5000000  0.3833333  )
        72           C   tau(  72) = (  0.4000000  0.7500001  0.3833333  )
        73           C   tau(  73) = (  0.6000000  0.0000000  0.3833333  )
        74           C   tau(  74) = (  0.6000000  0.2500000  0.3833333  )
        75           C   tau(  75) = (  0.6000000  0.5000000  0.3833333  )
        76           C   tau(  76) = (  0.6000000  0.7500001  0.3833333  )
        77           C   tau(  77) = (  0.8000000  0.0000000  0.3833333  )
        78           C   tau(  78) = (  0.8000000  0.2500000  0.3833333  )
        79           C   tau(  79) = (  0.8000000  0.5000000  0.3833333  )
        80           C   tau(  80) = (  0.8000000  0.7500001  0.3833333  )
        81           C   tau(  81) = (  0.0000000  0.1666667  0.3833333  )
        82           C   tau(  82) = (  0.0000000  0.4166667  0.3833333  )
        83           C   tau(  83) = (  0.0000000  0.6666667  0.3833333  )
        84           C   tau(  84) = (  0.0000000  0.9166667  0.3833333  )
        85           C   tau(  85) = (  0.2000000  0.1666667  0.3833333  )
        86           C   tau(  86) = (  0.2000000  0.4166667  0.3833333  )
        87           C   tau(  87) = (  0.2000000  0.6666667  0.3833333  )
        88           C   tau(  88) = (  0.2000000  0.9166667  0.3833333  )
        89           C   tau(  89) = (  0.4000000  0.1666667  0.3833333  )
        90           C   tau(  90) = (  0.4000000  0.4166667  0.3833333  )
        91           C   tau(  91) = (  0.4000000  0.6666667  0.3833333  )
        92           C   tau(  92) = (  0.4000000  0.9166667  0.3833333  )
        93           C   tau(  93) = (  0.6000000  0.1666667  0.3833333  )
        94           C   tau(  94) = (  0.6000000  0.4166667  0.3833333  )
        95           C   tau(  95) = (  0.6000000  0.6666667  0.3833333  )
        96           C   tau(  96) = (  0.6000000  0.9166667  0.3833333  )
        97           C   tau(  97) = (  0.8000000  0.1666667  0.3833333  )
        98           C   tau(  98) = (  0.8000000  0.4166667  0.3833333  )
        99           C   tau(  99) = (  0.8000000  0.6666667  0.3833333  )
       100           C   tau( 100) = (  0.8000000  0.9166667  0.3833333  )
       101           C   tau( 101) = (  0.1000000  0.1250000  0.3833333  )
       102           C   tau( 102) = (  0.1000000  0.3750000  0.3833333  )
       103           C   tau( 103) = (  0.1000000  0.6250000  0.3833333  )
       104           C   tau( 104) = (  0.1000000  0.8750000  0.3833333  )
       105           C   tau( 105) = (  0.3000000  0.1250000  0.3833333  )
       106           C   tau( 106) = (  0.3000000  0.3750000  0.3833333  )
       107           C   tau( 107) = (  0.3000000  0.6250000  0.3833333  )
       108           C   tau( 108) = (  0.3000000  0.8750000  0.3833333  )
       109           C   tau( 109) = (  0.5000000  0.1250000  0.3833333  )
       110           C   tau( 110) = (  0.5000000  0.3750000  0.3833333  )
       111           C   tau( 111) = (  0.5000000  0.6250000  0.3833333  )
       112           C   tau( 112) = (  0.5000000  0.8750000  0.3833333  )
       113           C   tau( 113) = (  0.7000000  0.1250000  0.3833333  )
       114           C   tau( 114) = (  0.7000000  0.3750000  0.3833333  )
       115           C   tau( 115) = (  0.7000000  0.6250000  0.3833333  )
       116           C   tau( 116) = (  0.7000000  0.8750000  0.3833333  )
       117           C   tau( 117) = (  0.9000000  0.1250000  0.3833333  )
       118           C   tau( 118) = (  0.9000000  0.3750000  0.3833333  )
       119           C   tau( 119) = (  0.9000000  0.6250000  0.3833333  )
       120           C   tau( 120) = (  0.9000000  0.8750000  0.3833333  )
       121           C   tau( 121) = (  0.1000000  0.0416667  0.3833333  )
       122           C   tau( 122) = (  0.1000000  0.2916667  0.3833333  )
       123           C   tau( 123) = (  0.1000000  0.5416667  0.3833333  )
       124           C   tau( 124) = (  0.1000000  0.7916667  0.3833333  )
       125           C   tau( 125) = (  0.3000000  0.0416667  0.3833333  )
       126           C   tau( 126) = (  0.3000000  0.2916667  0.3833333  )
       127           C   tau( 127) = (  0.3000000  0.5416667  0.3833333  )
       128           C   tau( 128) = (  0.3000000  0.7916667  0.3833333  )
       129           C   tau( 129) = (  0.5000000  0.0416667  0.3833333  )
       130           C   tau( 130) = (  0.5000000  0.2916667  0.3833333  )
       131           C   tau( 131) = (  0.5000000  0.5416667  0.3833333  )
       132           C   tau( 132) = (  0.5000000  0.7916667  0.3833333  )
       133           C   tau( 133) = (  0.7000000  0.0416667  0.3833333  )
       134           C   tau( 134) = (  0.7000000  0.2916667  0.3833333  )
       135           C   tau( 135) = (  0.7000000  0.5416667  0.3833333  )
       136           C   tau( 136) = (  0.7000000  0.7916667  0.3833333  )
       137           C   tau( 137) = (  0.9000000  0.0416667  0.3833333  )
       138           C   tau( 138) = (  0.9000000  0.2916667  0.3833333  )
       139           C   tau( 139) = (  0.9000000  0.5416667  0.3833333  )
       140           C   tau( 140) = (  0.9000000  0.7916667  0.3833333  )

     number of k points=     5  Gaussian smearing, width (Ry)=  0.0010
                       cart. coord. in units 2pi/alat
        k(    1) = (   0.0000000   0.0000000   0.0000000), wk =   0.2222222
        k(    2) = (   0.0000000   0.2398916   0.0000000), wk =   0.4444444
        k(    3) = (   0.3333333   0.0000000   0.0000000), wk =   0.4444444
        k(    4) = (   0.3333333   0.2398916   0.0000000), wk =   0.4444444
        k(    5) = (  -0.3333333   0.2398916   0.0000000), wk =   0.4444444

                       cryst. coord.
        k(    1) = (   0.0000000   0.0000000   0.0000000), wk =   0.2222222
        k(    2) = (   0.0000000   0.3333333   0.0000000), wk =   0.4444444
        k(    3) = (   0.3333333   0.0000000   0.0000000), wk =   0.4444444
        k(    4) = (   0.3333333   0.3333333   0.0000000), wk =   0.4444444
        k(    5) = (  -0.3333333   0.3333333   0.0000000), wk =   0.4444444

     Dense  grid:  8205749 G-vectors     FFT dimensions: ( 180, 240, 405)

     Smooth grid:  2728805 G-vectors     FFT dimensions: ( 120, 162, 288)

     Dynamical RAM for                 wfc:      20.49 MB

     Dynamical RAM for     wfc (w. buffer):     122.92 MB

     Dynamical RAM for           str. fact:       2.93 MB

     Dynamical RAM for           local pot:       0.00 MB

     Dynamical RAM for          nlocal pot:      69.92 MB

     Dynamical RAM for                qrad:       5.38 MB

     Dynamical RAM for          rho,v,vnew:       6.89 MB

     Dynamical RAM for               rhoin:       2.30 MB

     Dynamical RAM for            rho*nmix:      15.65 MB

     Dynamical RAM for           G-vectors:       3.83 MB

     Dynamical RAM for          h,s,v(r/c):       1.85 MB

     Dynamical RAM for          <psi|beta>:      13.23 MB

     Dynamical RAM for                 psi:      40.97 MB

     Dynamical RAM for                hpsi:      40.97 MB

     Dynamical RAM for                spsi:      40.97 MB

     Dynamical RAM for      wfcinit/wfcrot:      72.70 MB

     Dynamical RAM for           addusdens:     260.21 MB

     Dynamical RAM for          addusforce:     415.57 MB

     Estimated static dynamical RAM per process >     224.68 MB

     Estimated max dynamical RAM per process >     655.90 MB

     Estimated total dynamical RAM >      81.99 GB

     Initial potential from superposition of free atoms

     starting charge     839.9769, renormalised to     840.0000

     negative rho (up, down):  3.034E-03 0.000E+00
     Starting wfcs are  740 randomized atomic wfcs
     Checking if some PAW data can be deallocated... 
       PAW data deallocated on   48 nodes for type:  1
       PAW data deallocated on   90 nodes for type:  2
       PAW data deallocated on  118 nodes for type:  3

     total cpu time spent up to now is       47.6 secs

     Self-consistent Calculation

     iteration #  1     ecut=    60.00 Ry     beta= 0.90
     Davidson diagonalization with overlap

---- Real-time Memory Report at c_bands before calling an iterative solver
           646 MiB given to the printing process from OS
             0 MiB allocation reported by mallinfo(arena+hblkhd)
        471447 MiB available memory on the node where the printing process lives
------------------
     ethr =  1.00E-02,  avg # of iterations =  2.6

     negative rho (up, down):  3.285E-02 0.000E+00

     total cpu time spent up to now is      134.6 secs

     total energy              =  -31184.30014526 Ry
     estimated scf accuracy    <      24.66349949 Ry

     iteration #  2     ecut=    60.00 Ry     beta= 0.90
     Davidson diagonalization with overlap

---- Real-time Memory Report at c_bands before calling an iterative solver
           820 MiB given to the printing process from OS
             0 MiB allocation reported by mallinfo(arena+hblkhd)
        467965 MiB available memory on the node where the printing process lives
------------------
     ethr =  2.94E-03,  avg # of iterations =  1.4

     negative rho (up, down):  3.302E-02 0.000E+00

     total cpu time spent up to now is      196.9 secs

     total energy              =  -31185.30033669 Ry
     estimated scf accuracy    <       2.02049201 Ry

     iteration #  3     ecut=    60.00 Ry     beta= 0.90
     Davidson diagonalization with overlap

---- Real-time Memory Report at c_bands before calling an iterative solver
           832 MiB given to the printing process from OS
             0 MiB allocation reported by mallinfo(arena+hblkhd)
        467760 MiB available memory on the node where the printing process lives
------------------
     c_bands:  1 eigenvalues not converged
     c_bands:  2 eigenvalues not converged
     c_bands:  1 eigenvalues not converged
     ethr =  2.41E-04,  avg # of iterations = 17.6

     negative rho (up, down):  2.510E-02 0.000E+00

     total cpu time spent up to now is      317.1 secs

     total energy              =  -31185.53059293 Ry
     estimated scf accuracy    <       0.39039582 Ry

     iteration #  4     ecut=    60.00 Ry     beta= 0.90
     Davidson diagonalization with overlap

---- Real-time Memory Report at c_bands before calling an iterative solver
           900 MiB given to the printing process from OS
             0 MiB allocation reported by mallinfo(arena+hblkhd)
        466479 MiB available memory on the node where the printing process lives
------------------
     ethr =  4.65E-05,  avg # of iterations = 14.6

     negative rho (up, down):  1.831E-02 0.000E+00

     total cpu time spent up to now is      410.6 secs

     total energy              =  -31185.54209090 Ry
     estimated scf accuracy    <       0.15888624 Ry

     iteration #  5     ecut=    60.00 Ry     beta= 0.90
     Davidson diagonalization with overlap

---- Real-time Memory Report at c_bands before calling an iterative solver
           951 MiB given to the printing process from OS
             0 MiB allocation reported by mallinfo(arena+hblkhd)
        465617 MiB available memory on the node where the printing process lives
------------------
     ethr =  1.89E-05,  avg # of iterations =  5.6

     negative rho (up, down):  1.697E-02 0.000E+00

     total cpu time spent up to now is      483.3 secs

     total energy              =  -31185.53865020 Ry
     estimated scf accuracy    <       0.07975998 Ry

     iteration #  6     ecut=    60.00 Ry     beta= 0.90
     Davidson diagonalization with overlap

---- Real-time Memory Report at c_bands before calling an iterative solver
           983 MiB given to the printing process from OS
             0 MiB allocation reported by mallinfo(arena+hblkhd)
        465219 MiB available memory on the node where the printing process lives
------------------
     c_bands:  2 eigenvalues not converged
     ethr =  9.50E-06,  avg # of iterations = 11.8

     negative rho (up, down):  2.303E-02 0.000E+00

     total cpu time spent up to now is      564.1 secs

     total energy              =  -31185.53838014 Ry
     estimated scf accuracy    <       0.03944578 Ry

     iteration #  7     ecut=    60.00 Ry     beta= 0.90
     Davidson diagonalization with overlap

---- Real-time Memory Report at c_bands before calling an iterative solver
          1009 MiB given to the printing process from OS
             0 MiB allocation reported by mallinfo(arena+hblkhd)
        464468 MiB available memory on the node where the printing process lives
------------------
     ethr =  4.70E-06,  avg # of iterations =  9.8

     negative rho (up, down):  3.101E-02 0.000E+00

     total cpu time spent up to now is      647.9 secs

     total energy              =  -31185.53635563 Ry
     estimated scf accuracy    <       0.02722652 Ry

     iteration #  8     ecut=    60.00 Ry     beta= 0.90
     Davidson diagonalization with overlap

---- Real-time Memory Report at c_bands before calling an iterative solver
          1051 MiB given to the printing process from OS
             0 MiB allocation reported by mallinfo(arena+hblkhd)
        463907 MiB available memory on the node where the printing process lives
------------------
     ethr =  3.24E-06,  avg # of iterations =  5.0

     negative rho (up, down):  8.635E-02 0.000E+00

     total cpu time spent up to now is      716.8 secs

     total energy              =  -31185.53293798 Ry
     estimated scf accuracy    <       0.02013233 Ry

     iteration #  9     ecut=    60.00 Ry     beta= 0.90
     Davidson diagonalization with overlap

---- Real-time Memory Report at c_bands before calling an iterative solver
          1061 MiB given to the printing process from OS
             0 MiB allocation reported by mallinfo(arena+hblkhd)
        463478 MiB available memory on the node where the printing process lives
------------------
     c_bands:  4 eigenvalues not converged
     ethr =  2.40E-06,  avg # of iterations =  7.0

     negative rho (up, down):  1.257E-01 0.000E+00

     total cpu time spent up to now is      788.2 secs

     total energy              =  -31185.53198099 Ry
     estimated scf accuracy    <       0.01096117 Ry

     iteration # 10     ecut=    60.00 Ry     beta= 0.90
     Davidson diagonalization with overlap

---- Real-time Memory Report at c_bands before calling an iterative solver
          1082 MiB given to the printing process from OS
             0 MiB allocation reported by mallinfo(arena+hblkhd)
        462995 MiB available memory on the node where the printing process lives
------------------
     c_bands:  3 eigenvalues not converged
     ethr =  1.30E-06,  avg # of iterations = 17.4

     negative rho (up, down):  8.644E-02 0.000E+00

     total cpu time spent up to now is      877.0 secs

     total energy              =  -31185.53175576 Ry
     estimated scf accuracy    <       0.00371941 Ry

     iteration # 11     ecut=    60.00 Ry     beta= 0.90
     Davidson diagonalization with overlap

---- Real-time Memory Report at c_bands before calling an iterative solver
          1144 MiB given to the printing process from OS
             0 MiB allocation reported by mallinfo(arena+hblkhd)
        462210 MiB available memory on the node where the printing process lives
------------------
     ethr =  4.43E-07,  avg # of iterations =  5.4

     negative rho (up, down):  6.163E-02 0.000E+00

     total cpu time spent up to now is      953.2 secs

     total energy              =  -31185.53193512 Ry
     estimated scf accuracy    <       0.00056969 Ry

     iteration # 12     ecut=    60.00 Ry     beta= 0.90
     Davidson diagonalization with overlap

---- Real-time Memory Report at c_bands before calling an iterative solver
          1152 MiB given to the printing process from OS
             0 MiB allocation reported by mallinfo(arena+hblkhd)
        461933 MiB available memory on the node where the printing process lives
------------------
     ethr =  6.78E-08,  avg # of iterations =  4.4

     negative rho (up, down):  3.673E-02 0.000E+00

     total cpu time spent up to now is     1026.9 secs

     total energy              =  -31185.53186897 Ry
     estimated scf accuracy    <       0.00012755 Ry

     iteration # 13     ecut=    60.00 Ry     beta= 0.90
     Davidson diagonalization with overlap

---- Real-time Memory Report at c_bands before calling an iterative solver
          1169 MiB given to the printing process from OS
             0 MiB allocation reported by mallinfo(arena+hblkhd)
        461711 MiB available memory on the node where the printing process lives
------------------
     ethr =  1.52E-08,  avg # of iterations =  7.2

     negative rho (up, down):  2.930E-02 0.000E+00

     total cpu time spent up to now is     1103.1 secs

     total energy              =  -31185.53185995 Ry
     estimated scf accuracy    <       0.00003272 Ry

     iteration # 14     ecut=    60.00 Ry     beta= 0.90
     Davidson diagonalization with overlap

---- Real-time Memory Report at c_bands before calling an iterative solver
          1190 MiB given to the printing process from OS
             0 MiB allocation reported by mallinfo(arena+hblkhd)
        461355 MiB available memory on the node where the printing process lives
------------------
     ethr =  3.90E-09,  avg # of iterations =  3.6

     negative rho (up, down):  2.700E-02 0.000E+00

     total cpu time spent up to now is     1173.2 secs

     total energy              =  -31185.53184186 Ry
     estimated scf accuracy    <       0.00001250 Ry

     iteration # 15     ecut=    60.00 Ry     beta= 0.90
     Davidson diagonalization with overlap

---- Real-time Memory Report at c_bands before calling an iterative solver
          1208 MiB given to the printing process from OS
             0 MiB allocation reported by mallinfo(arena+hblkhd)
        461138 MiB available memory on the node where the printing process lives
------------------
     ethr =  1.49E-09,  avg # of iterations =  4.4

     negative rho (up, down):  2.686E-02 0.000E+00

     total cpu time spent up to now is     1253.2 secs

     total energy              =  -31185.53184388 Ry
     estimated scf accuracy    <       0.00000408 Ry

     iteration # 16     ecut=    60.00 Ry     beta= 0.90
     Davidson diagonalization with overlap

---- Real-time Memory Report at c_bands before calling an iterative solver
          1232 MiB given to the printing process from OS
             0 MiB allocation reported by mallinfo(arena+hblkhd)
        460847 MiB available memory on the node where the printing process lives
------------------
     ethr =  4.85E-10,  avg # of iterations =  5.6

     negative rho (up, down):  2.667E-02 0.000E+00

     total cpu time spent up to now is     1323.6 secs

     total energy              =  -31185.53184536 Ry
     estimated scf accuracy    <       0.00000217 Ry

     iteration # 17     ecut=    60.00 Ry     beta= 0.90
     Davidson diagonalization with overlap

---- Real-time Memory Report at c_bands before calling an iterative solver
          1239 MiB given to the printing process from OS
             0 MiB allocation reported by mallinfo(arena+hblkhd)
        460588 MiB available memory on the node where the printing process lives
------------------
     ethr =  2.58E-10,  avg # of iterations =  3.2

     negative rho (up, down):  2.664E-02 0.000E+00

     total cpu time spent up to now is     1394.0 secs

     total energy              =  -31185.53184532 Ry
     estimated scf accuracy    <       0.00000089 Ry

     iteration # 18     ecut=    60.00 Ry     beta= 0.90
     Davidson diagonalization with overlap

---- Real-time Memory Report at c_bands before calling an iterative solver
          1252 MiB given to the printing process from OS
             0 MiB allocation reported by mallinfo(arena+hblkhd)
        460419 MiB available memory on the node where the printing process lives
------------------
     ethr =  1.06E-10,  avg # of iterations =  5.6

     negative rho (up, down):  2.660E-02 0.000E+00

     total cpu time spent up to now is     1465.4 secs

     total energy              =  -31185.53184489 Ry
     estimated scf accuracy    <       0.00000048 Ry

     iteration # 19     ecut=    60.00 Ry     beta= 0.90
     Davidson diagonalization with overlap

---- Real-time Memory Report at c_bands before calling an iterative solver
          1273 MiB given to the printing process from OS
             0 MiB allocation reported by mallinfo(arena+hblkhd)
        460029 MiB available memory on the node where the printing process lives
------------------
     ethr =  5.69E-11,  avg # of iterations =  2.6

     negative rho (up, down):  2.650E-02 0.000E+00

     total cpu time spent up to now is     1538.3 secs

     total energy              =  -31185.53184490 Ry
     estimated scf accuracy    <       0.00000024 Ry

     iteration # 20     ecut=    60.00 Ry     beta= 0.90
     Davidson diagonalization with overlap

---- Real-time Memory Report at c_bands before calling an iterative solver
          1294 MiB given to the printing process from OS
             0 MiB allocation reported by mallinfo(arena+hblkhd)
        459880 MiB available memory on the node where the printing process lives
------------------
     ethr =  2.82E-11,  avg # of iterations =  4.0

     negative rho (up, down):  2.629E-02 0.000E+00

     total cpu time spent up to now is     1607.1 secs

     total energy              =  -31185.53184525 Ry
     estimated scf accuracy    <       0.00000010 Ry

     iteration # 21     ecut=    60.00 Ry     beta= 0.90
     Davidson diagonalization with overlap

---- Real-time Memory Report at c_bands before calling an iterative solver
          1307 MiB given to the printing process from OS
             0 MiB allocation reported by mallinfo(arena+hblkhd)
        459643 MiB available memory on the node where the printing process lives
------------------
     ethr =  1.18E-11,  avg # of iterations =  5.8

     negative rho (up, down):  2.629E-02 0.000E+00

     total cpu time spent up to now is     1682.4 secs

     total energy              =  -31185.53184526 Ry
     estimated scf accuracy    <       0.00000001 Ry

     iteration # 22     ecut=    60.00 Ry     beta= 0.90
     Davidson diagonalization with overlap

---- Real-time Memory Report at c_bands before calling an iterative solver
          1318 MiB given to the printing process from OS
             0 MiB allocation reported by mallinfo(arena+hblkhd)
        459384 MiB available memory on the node where the printing process lives
------------------
     ethr =  1.28E-12,  avg # of iterations =  8.0

     negative rho (up, down):  2.631E-02 0.000E+00

     total cpu time spent up to now is     1769.2 secs

     total energy              =  -31185.53184524 Ry
     estimated scf accuracy    <          3.7E-09 Ry

     iteration # 23     ecut=    60.00 Ry     beta= 0.90
     Davidson diagonalization with overlap

---- Real-time Memory Report at c_bands before calling an iterative solver
          1350 MiB given to the printing process from OS
             0 MiB allocation reported by mallinfo(arena+hblkhd)
        458923 MiB available memory on the node where the printing process lives
------------------
     ethr =  4.37E-13,  avg # of iterations =  2.0

     negative rho (up, down):  2.630E-02 0.000E+00

     total cpu time spent up to now is     1842.3 secs

     total energy              =  -31185.53184525 Ry
     estimated scf accuracy    <          1.1E-09 Ry

     iteration # 24     ecut=    60.00 Ry     beta= 0.90
     Davidson diagonalization with overlap

---- Real-time Memory Report at c_bands before calling an iterative solver
          1361 MiB given to the printing process from OS
             0 MiB allocation reported by mallinfo(arena+hblkhd)
        458776 MiB available memory on the node where the printing process lives
------------------
     ethr =  1.30E-13,  avg # of iterations =  2.0

     negative rho (up, down):  2.632E-02 0.000E+00

     total cpu time spent up to now is     1904.5 secs

     End of self-consistent calculation

          k = 0.0000 0.0000 0.0000 (341279 PWs)   bands (ev):

   -73.6342 -73.6335 -73.6304 -73.6277 -73.6211 -73.6188 -73.6154 -73.6139
   -73.6038 -73.6038 -73.5988 -73.5977 -73.5964 -73.5949 -73.5870 -73.5858
   -73.5798 -73.5769 -73.5742 -73.5727 -38.0578 -38.0575 -38.0532 -38.0529
   -38.0430 -38.0429 -38.0400 -38.0400 -38.0069 -38.0046 -37.9992 -37.9978
   -37.9968 -37.9966 -37.9954 -37.9928 -37.9862 -37.9819 -37.9517 -37.9511
   -37.9158 -37.9149 -37.9050 -37.9041 -37.8933 -37.8927 -37.8730 -37.8723
   -37.8617 -37.8611 -37.8422 -37.8417 -37.8361 -37.8354 -37.8137 -37.8127
   -37.8030 -37.8018 -37.7803 -37.7794 -37.7368 -37.7362 -37.7121 -37.7113
   -37.7097 -37.7091 -37.6534 -37.6534 -37.6481 -37.6480 -37.5861 -37.5856
   -37.5766 -37.5757 -37.5491 -37.5460 -37.5394 -37.5381 -37.5355 -37.5327
   -19.4352 -19.0725 -19.0707 -18.8571 -18.5947 -18.4969 -18.4944 -18.2362
   -18.2351 -17.9923 -17.9923 -17.4259 -17.4259 -17.1706 -17.1706 -16.7158
   -16.6058 -16.3699 -16.3667 -16.2596 -16.2582 -16.2343 -16.2337 -15.6770
   -15.6767 -15.4485 -15.4483 -15.3436 -15.3436 -15.2483 -15.2483 -14.3175
   -13.9201 -13.9054 -13.8256 -13.8232 -13.8079 -13.5931 -13.5690 -13.5033
   -13.1520 -12.9198 -12.7866 -12.7137 -12.6567 -12.6555 -12.6537 -12.5130
   -12.4510 -12.4296 -12.1713 -12.0304 -11.9360 -11.8994 -11.8993 -11.8534
   -11.8462 -11.8461 -11.8386 -11.7416 -11.7262 -11.6160 -11.6159 -11.5268
   -11.4950 -11.4870 -11.2294 -11.2279 -11.2219 -11.2209 -10.9581 -10.9581
   -10.8990 -10.8823 -10.8191 -10.8188 -10.7473 -10.7473 -10.6958 -10.6370
   -10.6198 -10.6164 -10.6057 -10.6053 -10.5908 -10.5908 -10.5364 -10.4663
   -10.4494 -10.3302 -10.3299 -10.3267 -10.3265 -10.3071 -10.3070 -10.2825
   -10.2819 -10.2737 -10.2726 -10.1100 -10.1099 -10.0668 -10.0349 -10.0248
   -10.0248  -8.9737  -8.9675  -8.8106  -8.7287  -8.3677  -8.3593  -8.3196
    -8.3185  -8.3168  -8.3168  -8.2586  -8.2583  -8.1820  -8.1819  -8.1639
    -8.1639  -7.7822  -7.4927  -7.4921  -7.4273  -7.3991  -7.3726  -7.3721
    -7.3243  -6.9457  -6.9309  -6.8372  -6.6197  -6.6189  -6.5807  -6.5807
    -6.4944  -6.4936  -6.4651  -6.4651  -6.4497  -6.4497  -6.4431  -6.4428
    -6.4175  -6.4164  -6.4049  -6.4029  -6.3874  -6.3761  -6.3412  -6.3186
    -6.3182  -6.0021  -6.0010  -5.9337  -5.9337  -5.8892  -5.8013  -5.8010
    -5.4735  -5.4498  -5.4076  -5.4067  -5.3646  -5.3106  -5.2389  -5.2389
    -5.2316  -5.1998  -5.1568  -5.0224  -5.0224  -5.0101  -4.9673  -4.8609
    -4.8607  -4.8198  -4.8139  -4.7992  -4.7540  -4.7463  -4.6864  -4.6842
    -4.6418  -4.6316  -4.6261  -4.6142  -4.5697  -4.5679  -4.5127  -4.4962
    -4.4884  -4.4711  -4.4697  -4.4650  -4.4641  -4.4207  -4.3049  -4.3029
    -4.2822  -4.2501  -4.2474  -4.0493  -4.0048  -3.9814  -3.9812  -3.9624
    -3.9608  -3.8356  -3.8175  -3.7578  -3.7572  -3.7426  -3.7315  -3.6682
    -3.6682  -3.5720  -3.5686  -3.4520  -3.4510  -3.4285  -3.4094  -3.3846
    -3.3844  -3.3734  -3.3720  -3.3400  -3.3345  -3.3248  -3.3044  -3.2530
    -3.1975  -3.1894  -3.1120  -3.1060  -3.1019  -3.0855  -3.0618  -3.0341
    -3.0323  -2.9485  -2.9462  -2.9282  -2.7490  -2.7479  -2.7300  -2.6782
    -2.6265  -2.6260  -2.5451  -2.5443  -2.5093  -2.4136  -2.4065  -2.3692
    -2.3662  -2.3547  -2.3409  -2.2595  -2.2562  -2.2047  -2.1912  -2.1821
    -2.1283  -2.1223  -2.1045  -2.0685  -2.0518  -2.0203  -1.9860  -1.9419
    -1.9306  -1.9128  -1.8967  -1.8239  -1.7375  -1.7198  -1.6930  -1.6544
    -1.5872  -1.5681  -1.5604  -1.5176  -1.4860  -1.4736  -1.4321  -1.4031
    -1.4021  -1.3023  -1.2987  -1.2648  -1.2294  -1.2151  -1.2052  -1.2021
    -1.1956  -1.1844  -1.1481  -1.1279  -1.1079  -1.0824  -1.0542  -1.0253
    -0.9806  -0.9711  -0.9396  -0.9175  -0.9137  -0.9021  -0.8968  -0.8327
    -0.8097  -0.7320  -0.7294  -0.6636  -0.6363  -0.6317  -0.6250  -0.5570
    -0.5568  -0.4495  -0.4232  -0.4208  -0.3722  -0.3001  -0.2847  -0.2707
    -0.2677  -0.2013  -0.1878  -0.1690  -0.1627  -0.1502  -0.1163  -0.0408
    -0.0106   0.2111   0.2290   0.5658   0.5749   0.5794   0.7993   0.8569
     0.8863   0.9915   1.0201   1.0864   1.2108   1.2260   1.2361   1.2809
     1.3216   1.3536   1.4006   1.5338   1.5341   1.6736   1.6737   1.6827
     1.7206   1.7269   1.9297   1.9314   1.9558   1.9826   1.9880   2.0216
     2.0424   2.0618   2.0921   2.0934   2.2287   2.2781   2.2796   2.4030
     2.4319   2.4467   2.4497   2.4849   2.4862   2.4939   2.5665   2.6107
     2.6196   2.6253   2.6339   2.6485   2.6631   2.6787   2.7271   2.7462
     2.7613   2.7661   2.8018   2.8042   2.9368   2.9517   2.9586   2.9646
     2.9938   3.0158   3.0413   3.0525   3.0816   3.0894   3.1180   3.1347
     3.2137   3.2336   3.2466   3.2482   3.2984   3.3109   3.3193   3.4416
     3.4581   3.5313   3.6724   3.6739   3.7128   3.7811   3.8165   3.9256

     occupation numbers 
     1.0000   1.0000   1.0000   1.0000   1.0000   1.0000   1.0000   1.0000
     1.0000   1.0000   1.0000   1.0000   1.0000   1.0000   1.0000   1.0000
     1.0000   1.0000   1.0000   1.0000   1.0000   1.0000   1.0000   1.0000
     1.0000   1.0000   1.0000   1.0000   1.0000   1.0000   1.0000   1.0000
     1.0000   1.0000   1.0000   1.0000   1.0000   1.0000   1.0000   1.0000
     1.0000   1.0000   1.0000   1.0000   1.0000   1.0000   1.0000   1.0000
     1.0000   1.0000   1.0000   1.0000   1.0000   1.0000   1.0000   1.0000
     1.0000   1.0000   1.0000   1.0000   1.0000   1.0000   1.0000   1.0000
     1.0000   1.0000   1.0000   1.0000   1.0000   1.0000   1.0000   1.0000
     1.0000   1.0000   1.0000   1.0000   1.0000   1.0000   1.0000   1.0000
     1.0000   1.0000   1.0000   1.0000   1.0000   1.0000   1.0000   1.0000
     1.0000   1.0000   1.0000   1.0000   1.0000   1.0000   1.0000   1.0000
     1.0000   1.0000   1.0000   1.0000   1.0000   1.0000   1.0000   1.0000
     1.0000   1.0000   1.0000   1.0000   1.0000   1.0000   1.0000   1.0000
     1.0000   1.0000   1.0000   1.0000   1.0000   1.0000   1.0000   1.0000
     1.0000   1.0000   1.0000   1.0000   1.0000   1.0000   1.0000   1.0000
     1.0000   1.0000   1.0000   1.0000   1.0000   1.0000   1.0000   1.0000
     1.0000   1.0000   1.0000   1.0000   1.0000   1.0000   1.0000   1.0000
     1.0000   1.0000   1.0000   1.0000   1.0000   1.0000   1.0000   1.0000
     1.0000   1.0000   1.0000   1.0000   1.0000   1.0000   1.0000   1.0000
     1.0000   1.0000   1.0000   1.0000   1.0000   1.0000   1.0000   1.0000
     1.0000   1.0000   1.0000   1.0000   1.0000   1.0000   1.0000   1.0000
     1.0000   1.0000   1.0000   1.0000   1.0000   1.0000   1.0000   1.0000
     1.0000   1.0000   1.0000   1.0000   1.0000   1.0000   1.0000   1.0000
     1.0000   1.0000   1.0000   1.0000   1.0000   1.0000   1.0000   1.0000
     1.0000   1.0000   1.0000   1.0000   1.0000   1.0000   1.0000   1.0000
     1.0000   1.0000   1.0000   1.0000   1.0000   1.0000   1.0000   1.0000
     1.0000   1.0000   1.0000   1.0000   1.0000   1.0000   1.0000   1.0000
     1.0000   1.0000   1.0000   1.0000   1.0000   1.0000   1.0000   1.0000
     1.0000   1.0000   1.0000   1.0000   1.0000   1.0000   1.0000   1.0000
     1.0000   1.0000   1.0000   1.0000   1.0000   1.0000   1.0000   1.0000
     1.0000   1.0000   1.0000   1.0000   1.0000   1.0000   1.0000   1.0000
     1.0000   1.0000   1.0000   1.0000   1.0000   1.0000   1.0000   1.0000
     1.0000   1.0000   1.0000   1.0000   1.0000   1.0000   1.0000   1.0000
     1.0000   1.0000   1.0000   1.0000   1.0000   1.0000   1.0000   1.0000
     1.0000   1.0000   1.0000   1.0000   1.0000   1.0000   1.0000   1.0000
     1.0000   1.0000   1.0000   1.0000   1.0000   1.0000   1.0000   1.0000
     1.0000   1.0000   1.0000   1.0000   1.0000   1.0000   1.0000   1.0000
     1.0000   1.0000   1.0000   1.0000   1.0000   1.0000   1.0000   1.0000
     1.0000   1.0000   1.0000   1.0000   1.0000   1.0000   1.0000   1.0000
     1.0000   1.0000   1.0000   1.0000   1.0000   1.0000   1.0000   1.0000
     1.0000   1.0000   1.0000   1.0000   1.0000   1.0000   1.0000   1.0000
     1.0000   1.0000   1.0000   1.0000   1.0000   1.0000   1.0000   1.0000
     1.0000   1.0000   1.0000   1.0000   1.0000   1.0000   1.0000   1.0000
     1.0000   1.0000   1.0000   1.0000   1.0000   1.0000   1.0000   1.0000
     1.0000   1.0000   1.0000   1.0000   1.0000   1.0000   1.0000   1.0000
     1.0000   1.0000   1.0000   1.0000   1.0000   1.0000   1.0000   1.0000
     1.0000   1.0000   1.0000   1.0000   1.0000   1.0000   1.0000   1.0000
     1.0000   1.0000   1.0000   1.0000   1.0000   1.0000   1.0000   1.0000
     1.0000   1.0000   1.0000   1.0000   1.0000   1.0000   1.0000   1.0000
     1.0000   1.0000   1.0000   1.0000   1.0000   1.0000   1.0000   1.0000
     1.0000   1.0000   1.0000   1.0000   1.0000   1.0000   1.0000   1.0000
     1.0000   1.0000   1.0000   0.0000   0.0000   0.0000   0.0000   0.0000
     0.0000   0.0000   0.0000   0.0000   0.0000   0.0000   0.0000   0.0000
     0.0000   0.0000   0.0000   0.0000   0.0000   0.0000   0.0000   0.0000
     0.0000   0.0000   0.0000   0.0000   0.0000   0.0000   0.0000   0.0000
     0.0000   0.0000   0.0000   0.0000   0.0000   0.0000   0.0000   0.0000
     0.0000   0.0000   0.0000   0.0000   0.0000   0.0000   0.0000   0.0000
     0.0000   0.0000   0.0000   0.0000   0.0000   0.0000   0.0000   0.0000
     0.0000   0.0000   0.0000   0.0000   0.0000   0.0000   0.0000   0.0000
     0.0000   0.0000   0.0000   0.0000   0.0000   0.0000   0.0000   0.0000
     0.0000   0.0000   0.0000   0.0000   0.0000   0.0000   0.0000   0.0000
     0.0000   0.0000   0.0000   0.0000   0.0000   0.0000   0.0000   0.0000

          k = 0.0000 0.2399 0.0000 (340932 PWs)   bands (ev):

   -73.6342 -73.6335 -73.6305 -73.6279 -73.6207 -73.6185 -73.6160 -73.6144
   -73.6030 -73.6028 -73.6003 -73.5988 -73.5957 -73.5943 -73.5870 -73.5859
   -73.5798 -73.5769 -73.5742 -73.5727 -38.0639 -38.0612 -38.0515 -38.0488
   -38.0420 -38.0400 -38.0300 -38.0287 -38.0193 -38.0183 -38.0114 -38.0113
   -37.9950 -37.9927 -37.9891 -37.9857 -37.9729 -37.9723 -37.9575 -37.9572
   -37.9144 -37.9132 -37.9079 -37.9068 -37.8894 -37.8890 -37.8778 -37.8771
   -37.8561 -37.8558 -37.8479 -37.8476 -37.8305 -37.8297 -37.8202 -37.8196
   -37.7953 -37.7941 -37.7845 -37.7834 -37.7329 -37.7328 -37.7242 -37.7231
   -37.6954 -37.6921 -37.6754 -37.6716 -37.6291 -37.6259 -37.6028 -37.6005
   -37.5646 -37.5636 -37.5526 -37.5504 -37.5394 -37.5385 -37.5341 -37.5329
   -19.3947 -19.2734 -18.8173 -18.7896 -18.6962 -18.5547 -18.4350 -18.4293
   -18.2162 -17.9577 -17.8587 -17.6022 -17.4823 -16.9309 -16.8822 -16.6761
   -16.6652 -16.5670 -16.5602 -16.4511 -16.3130 -16.0973 -16.0899 -15.9905
   -15.7758 -15.6532 -15.4963 -14.9854 -14.8857 -14.7888 -14.7817 -14.7529
   -14.3770 -14.2883 -14.2685 -14.0447 -13.6172 -13.5594 -13.5526 -13.5014
   -12.8597 -12.7332 -12.5981 -12.5979 -12.5682 -12.5180 -12.4997 -12.2780
   -12.2692 -12.2582 -12.2293 -12.1255 -12.0975 -12.0240 -12.0155 -11.9829
   -11.9101 -11.8418 -11.8393 -11.6836 -11.6706 -11.6517 -11.5028 -11.4727
   -11.4652 -11.3909 -11.3544 -11.3192 -11.2974 -11.2916 -11.1930 -11.1878
   -11.0573 -11.0565 -10.9828 -10.9739 -10.8734 -10.8706 -10.8563 -10.8442
   -10.7918 -10.7517 -10.7203 -10.6654 -10.6353 -10.6350 -10.5241 -10.4887
   -10.4259 -10.4247 -10.3832 -10.3217 -10.2817 -10.2454 -10.1737 -10.1222
   -10.1066 -10.0121  -9.7642  -9.7408  -9.7277  -9.7197  -9.6342  -9.6117
    -9.5019  -9.2229  -9.2177  -9.1104  -9.0664  -8.8447  -8.7825  -8.7556
    -8.6751  -8.5982  -8.5602  -8.5190  -7.8893  -7.8602  -7.7640  -7.6137
    -7.6056  -7.5977  -7.5867  -7.5853  -7.3233  -7.2885  -7.2845  -7.2220
    -7.1786  -7.1039  -7.0988  -7.0387  -7.0130  -6.9724  -6.9420  -6.8060
    -6.7678  -6.7399  -6.7375  -6.6509  -6.6401  -6.4176  -6.3154  -6.2922
    -6.2029  -6.1887  -6.1768  -6.1706  -6.1605  -6.1231  -6.0851  -5.9859
    -5.9365  -5.9159  -5.8612  -5.8567  -5.8357  -5.8138  -5.7645  -5.7354
    -5.6849  -5.5694  -5.5082  -5.5080  -5.4536  -5.4053  -5.3651  -5.2734
    -5.2245  -5.1628  -5.1615  -5.1375  -5.0303  -5.0086  -4.9568  -4.9544
    -4.9537  -4.9087  -4.8049  -4.7987  -4.7666  -4.7495  -4.7347  -4.7270
    -4.7223  -4.6979  -4.6482  -4.6025  -4.5708  -4.5467  -4.5045  -4.4663
    -4.4623  -4.4468  -4.4384  -4.3942  -4.3695  -4.3215  -4.2997  -4.2291
    -4.1813  -4.1698  -4.1254  -4.1141  -4.0928  -4.0087  -3.9788  -3.9732
    -3.9682  -3.9471  -3.9004  -3.8871  -3.8526  -3.8154  -3.7424  -3.7351
    -3.6856  -3.6824  -3.6756  -3.6645  -3.5240  -3.4638  -3.4182  -3.4070
    -3.3969  -3.3118  -3.2905  -3.2642  -3.2625  -3.2565  -3.2388  -3.2089
    -3.1702  -3.1667  -3.1287  -3.0956  -3.0678  -3.0548  -3.0515  -3.0031
    -2.9890  -2.9652  -2.9163  -2.7642  -2.6711  -2.6626  -2.6557  -2.6332
    -2.6006  -2.5942  -2.5064  -2.4766  -2.4609  -2.4525  -2.4319  -2.4251
    -2.3787  -2.3598  -2.3219  -2.2837  -2.2127  -2.1976  -2.1743  -2.1524
    -2.1171  -2.1141  -2.0844  -2.0656  -2.0326  -2.0210  -1.9958  -1.9797
    -1.9439  -1.8976  -1.8646  -1.8198  -1.7803  -1.7675  -1.7652  -1.6522
    -1.6478  -1.6383  -1.5682  -1.5524  -1.5470  -1.5333  -1.4894  -1.4814
    -1.4614  -1.3616  -1.2749  -1.2730  -1.2642  -1.2439  -1.2245  -1.1924
    -1.1637  -1.1362  -1.1097  -1.0798  -1.0678  -1.0625  -1.0205  -1.0051
    -0.9944  -0.9668  -0.9585  -0.9464  -0.8828  -0.8632  -0.8590  -0.8238
    -0.7927  -0.7690  -0.6666  -0.6249  -0.5910  -0.5633  -0.5377  -0.5263
    -0.4739  -0.4718  -0.4655  -0.4421  -0.4361  -0.4025  -0.3825  -0.3696
    -0.3684  -0.3022  -0.2839  -0.2613  -0.1495  -0.1156  -0.0595   0.0043
     0.1589   0.2165   0.4183   0.5133   0.5502   0.8280   0.8455   0.8579
     0.9743   1.0146   1.0174   1.0986   1.1570   1.2016   1.2274   1.2354
     1.2574   1.3577   1.4589   1.4842   1.5360   1.5624   1.5734   1.7319
     1.7635   1.8070   1.8922   1.8995   1.9411   1.9772   2.0372   2.0549
     2.0581   2.0862   2.1505   2.1558   2.1837   2.1998   2.2337   2.2624
     2.2873   2.2987   2.3470   2.3674   2.3904   2.4130   2.4352   2.4967
     2.5040   2.5965   2.6002   2.6447   2.6830   2.7428   2.7708   2.7777
     2.8372   2.8886   2.8915   2.9157   2.9220   2.9428   2.9545   2.9714
     3.0218   3.0337   3.0509   3.0711   3.0807   3.1026   3.2177   3.2418
     3.2508   3.2913   3.3216   3.3451   3.4295   3.4586   3.4715   3.5198
     3.5868   3.6223   3.6580   3.7368   3.7399   3.7637   3.7685   3.8452

     occupation numbers 
     1.0000   1.0000   1.0000   1.0000   1.0000   1.0000   1.0000   1.0000
     1.0000   1.0000   1.0000   1.0000   1.0000   1.0000   1.0000   1.0000
     1.0000   1.0000   1.0000   1.0000   1.0000   1.0000   1.0000   1.0000
     1.0000   1.0000   1.0000   1.0000   1.0000   1.0000   1.0000   1.0000
     1.0000   1.0000   1.0000   1.0000   1.0000   1.0000   1.0000   1.0000
     1.0000   1.0000   1.0000   1.0000   1.0000   1.0000   1.0000   1.0000
     1.0000   1.0000   1.0000   1.0000   1.0000   1.0000   1.0000   1.0000
     1.0000   1.0000   1.0000   1.0000   1.0000   1.0000   1.0000   1.0000
     1.0000   1.0000   1.0000   1.0000   1.0000   1.0000   1.0000   1.0000
     1.0000   1.0000   1.0000   1.0000   1.0000   1.0000   1.0000   1.0000
     1.0000   1.0000   1.0000   1.0000   1.0000   1.0000   1.0000   1.0000
     1.0000   1.0000   1.0000   1.0000   1.0000   1.0000   1.0000   1.0000
     1.0000   1.0000   1.0000   1.0000   1.0000   1.0000   1.0000   1.0000
     1.0000   1.0000   1.0000   1.0000   1.0000   1.0000   1.0000   1.0000
     1.0000   1.0000   1.0000   1.0000   1.0000   1.0000   1.0000   1.0000
     1.0000   1.0000   1.0000   1.0000   1.0000   1.0000   1.0000   1.0000
     1.0000   1.0000   1.0000   1.0000   1.0000   1.0000   1.0000   1.0000
     1.0000   1.0000   1.0000   1.0000   1.0000   1.0000   1.0000   1.0000
     1.0000   1.0000   1.0000   1.0000   1.0000   1.0000   1.0000   1.0000
     1.0000   1.0000   1.0000   1.0000   1.0000   1.0000   1.0000   1.0000
     1.0000   1.0000   1.0000   1.0000   1.0000   1.0000   1.0000   1.0000
     1.0000   1.0000   1.0000   1.0000   1.0000   1.0000   1.0000   1.0000
     1.0000   1.0000   1.0000   1.0000   1.0000   1.0000   1.0000   1.0000
     1.0000   1.0000   1.0000   1.0000   1.0000   1.0000   1.0000   1.0000
     1.0000   1.0000   1.0000   1.0000   1.0000   1.0000   1.0000   1.0000
     1.0000   1.0000   1.0000   1.0000   1.0000   1.0000   1.0000   1.0000
     1.0000   1.0000   1.0000   1.0000   1.0000   1.0000   1.0000   1.0000
     1.0000   1.0000   1.0000   1.0000   1.0000   1.0000   1.0000   1.0000
     1.0000   1.0000   1.0000   1.0000   1.0000   1.0000   1.0000   1.0000
     1.0000   1.0000   1.0000   1.0000   1.0000   1.0000   1.0000   1.0000
     1.0000   1.0000   1.0000   1.0000   1.0000   1.0000   1.0000   1.0000
     1.0000   1.0000   1.0000   1.0000   1.0000   1.0000   1.0000   1.0000
     1.0000   1.0000   1.0000   1.0000   1.0000   1.0000   1.0000   1.0000
     1.0000   1.0000   1.0000   1.0000   1.0000   1.0000   1.0000   1.0000
     1.0000   1.0000   1.0000   1.0000   1.0000   1.0000   1.0000   1.0000
     1.0000   1.0000   1.0000   1.0000   1.0000   1.0000   1.0000   1.0000
     1.0000   1.0000   1.0000   1.0000   1.0000   1.0000   1.0000   1.0000
     1.0000   1.0000   1.0000   1.0000   1.0000   1.0000   1.0000   1.0000
     1.0000   1.0000   1.0000   1.0000   1.0000   1.0000   1.0000   1.0000
     1.0000   1.0000   1.0000   1.0000   1.0000   1.0000   1.0000   1.0000
     1.0000   1.0000   1.0000   1.0000   1.0000   1.0000   1.0000   1.0000
     1.0000   1.0000   1.0000   1.0000   1.0000   1.0000   1.0000   1.0000
     1.0000   1.0000   1.0000   1.0000   1.0000   1.0000   1.0000   1.0000
     1.0000   1.0000   1.0000   1.0000   1.0000   1.0000   1.0000   1.0000
     1.0000   1.0000   1.0000   1.0000   1.0000   1.0000   1.0000   1.0000
     1.0000   1.0000   1.0000   1.0000   1.0000   1.0000   1.0000   1.0000
     1.0000   1.0000   1.0000   1.0000   1.0000   1.0000   1.0000   1.0000
     1.0000   1.0000   1.0000   1.0000   1.0000   1.0000   1.0000   1.0000
     1.0000   1.0000   1.0000   1.0000   1.0000   1.0000   1.0000   1.0000
     1.0000   1.0000   1.0000   1.0000   1.0000   1.0000   1.0000   1.0000
     1.0000   1.0000   1.0000   1.0000   1.0000   1.0000   1.0000   1.0000
     1.0000   1.0000   1.0000   1.0000   1.0000   1.0000   1.0000   1.0000
     1.0000   1.0000   1.0000   0.4999   0.0001   0.0000   0.0000   0.0000
     0.0000   0.0000   0.0000   0.0000   0.0000   0.0000   0.0000   0.0000
     0.0000   0.0000   0.0000   0.0000   0.0000   0.0000   0.0000   0.0000
     0.0000   0.0000   0.0000   0.0000   0.0000   0.0000   0.0000   0.0000
     0.0000   0.0000   0.0000   0.0000   0.0000   0.0000   0.0000   0.0000
     0.0000   0.0000   0.0000   0.0000   0.0000   0.0000   0.0000   0.0000
     0.0000   0.0000   0.0000   0.0000   0.0000   0.0000   0.0000   0.0000
     0.0000   0.0000   0.0000   0.0000   0.0000   0.0000   0.0000   0.0000
     0.0000   0.0000   0.0000   0.0000   0.0000   0.0000   0.0000   0.0000
     0.0000   0.0000   0.0000   0.0000   0.0000   0.0000   0.0000   0.0000
     0.0000   0.0000   0.0000   0.0000   0.0000   0.0000   0.0000   0.0000

          k = 0.3333 0.0000 0.0000 (341184 PWs)   bands (ev):

   -73.6342 -73.6335 -73.6304 -73.6277 -73.6211 -73.6188 -73.6154 -73.6139
   -73.6038 -73.6038 -73.5988 -73.5977 -73.5964 -73.5949 -73.5870 -73.5858
   -73.5798 -73.5769 -73.5742 -73.5727 -38.0575 -38.0572 -38.0535 -38.0533
   -38.0426 -38.0426 -38.0404 -38.0403 -38.0064 -38.0053 -37.9993 -37.9986
   -37.9964 -37.9961 -37.9946 -37.9933 -37.9853 -37.9831 -37.9515 -37.9512
   -37.9158 -37.9149 -37.9050 -37.9042 -37.8932 -37.8928 -37.8730 -37.8722
   -37.8617 -37.8611 -37.8422 -37.8417 -37.8361 -37.8354 -37.8135 -37.8129
   -37.8028 -37.8019 -37.7801 -37.7796 -37.7367 -37.7363 -37.7115 -37.7108
   -37.7103 -37.7096 -37.6529 -37.6528 -37.6487 -37.6486 -37.5861 -37.5855
   -37.5766 -37.5757 -37.5483 -37.5467 -37.5384 -37.5369 -37.5364 -37.5342
   -19.3586 -19.1329 -18.9963 -18.9943 -18.7715 -18.7695 -18.1674 -17.9177
   -17.9176 -17.8111 -17.8096 -17.6952 -17.6952 -17.4885 -17.1361 -17.1341
   -16.7547 -16.7547 -16.1868 -16.1866 -16.0614 -16.0614 -15.9412 -15.9412
   -15.7015 -15.3688 -15.3662 -15.0472 -15.0471 -14.6388 -14.4835 -14.4833
   -14.4311 -14.4310 -14.3650 -14.3561 -14.2508 -14.0501 -13.2249 -13.1079
   -12.9313 -12.9249 -12.9248 -12.8106 -12.6483 -12.6388 -12.4801 -12.4452
   -12.4442 -12.3615 -12.3328 -12.3219 -12.0936 -12.0743 -11.8062 -11.7539
   -11.6807 -11.6695 -11.5034 -11.5009 -11.4789 -11.4779 -11.4234 -11.3769
   -11.3704 -11.1768 -11.1767 -11.1280 -11.1272 -11.0562 -11.0559 -11.0558
   -11.0188 -10.7979 -10.7959 -10.7950 -10.7859 -10.7793 -10.7637 -10.7636
   -10.6776 -10.6723 -10.6596 -10.6488 -10.5621 -10.5615 -10.5505 -10.5146
   -10.5125 -10.5077 -10.5075 -10.4998 -10.4847 -10.4176 -10.3879 -10.3877
   -10.3470 -10.3461 -10.0813 -10.0813 -10.0495 -10.0362 -10.0361  -9.8973
    -9.3097  -9.3084  -9.3084  -9.0616  -9.0615  -8.9652  -8.9644  -8.8246
    -8.8224  -8.4057  -7.8042  -7.8019  -7.7635  -7.7629  -7.7279  -7.6780
    -7.5961  -7.5960  -7.5816  -7.5544  -7.4948  -7.4939  -7.3363  -7.3307
    -7.2062  -7.2033  -7.1410  -7.1345  -7.0586  -7.0553  -6.7005  -6.6692
    -6.6692  -6.5741  -6.5291  -6.5291  -6.4572  -6.4081  -6.4079  -6.3891
    -6.3421  -6.3387  -6.2868  -6.2868  -6.0934  -6.0913  -6.0598  -6.0589
    -6.0386  -6.0366  -5.8982  -5.7510  -5.7505  -5.7445  -5.7424  -5.5365
    -5.5159  -5.5058  -5.4945  -5.4880  -5.3662  -5.3454  -5.3446  -5.3376
    -5.3376  -5.2558  -5.2202  -5.2158  -5.1710  -5.1689  -5.1246  -5.1121
    -4.9897  -4.9894  -4.9115  -4.9087  -4.8482  -4.8326  -4.7479  -4.6647
    -4.6641  -4.6208  -4.6203  -4.5192  -4.5186  -4.4613  -4.4504  -4.3793
    -4.3750  -4.3635  -4.3529  -4.3476  -4.3460  -4.3018  -4.2894  -4.2179
    -4.1894  -4.1889  -4.1431  -4.1426  -4.0659  -4.0658  -3.9805  -3.9785
    -3.9129  -3.8845  -3.8575  -3.7742  -3.7373  -3.7009  -3.6965  -3.6467
    -3.6325  -3.5982  -3.5440  -3.5317  -3.5164  -3.5146  -3.4078  -3.3910
    -3.3562  -3.3556  -3.3362  -3.3351  -3.2568  -3.2299  -3.2033  -3.1539
    -3.1317  -3.1290  -3.1200  -3.0608  -3.0290  -2.9915  -2.9862  -2.9790
    -2.9482  -2.9141  -2.9070  -2.9000  -2.8632  -2.7632  -2.7612  -2.7582
    -2.6681  -2.6288  -2.6237  -2.5894  -2.5870  -2.5693  -2.5415  -2.5184
    -2.5118  -2.4351  -2.3789  -2.3735  -2.2765  -2.2536  -2.1827  -2.1482
    -2.1440  -2.1096  -2.0927  -2.0766  -2.0292  -1.9858  -1.9733  -1.9656
    -1.9138  -1.8638  -1.8619  -1.8537  -1.7353  -1.7232  -1.6854  -1.6800
    -1.6489  -1.6425  -1.6254  -1.6118  -1.5955  -1.5269  -1.5131  -1.4965
    -1.4798  -1.3675  -1.3648  -1.3268  -1.3162  -1.3047  -1.3038  -1.2348
    -1.2288  -1.2058  -1.1934  -1.1920  -1.1243  -0.9922  -0.9915  -0.9685
    -0.9323  -0.9217  -0.9150  -0.9000  -0.7911  -0.7786  -0.7764  -0.7071
    -0.6783  -0.6698  -0.6653  -0.6511  -0.6220  -0.6118  -0.5825  -0.5547
    -0.5369  -0.4556  -0.4537  -0.4513  -0.4353  -0.3724  -0.3573  -0.2946
    -0.2577  -0.2573  -0.2246  -0.1589  -0.1466  -0.1382  -0.0669   0.0554
     0.0948   0.1969   0.3051   0.3420   0.4039   0.7724   0.8079   0.8091
     0.9617   0.9633   1.1399   1.2965   1.3013   1.3315   1.3382   1.3576
     1.3880   1.4512   1.5434   1.5727   1.6264   1.6559   1.6627   1.7675
     1.7694   1.7967   1.8035   1.8400   1.9081   1.9419   2.0064   2.0622
     2.1193   2.1202   2.1534   2.1550   2.1999   2.2357   2.2361   2.2980
     2.3271   2.3881   2.3899   2.4261   2.4753   2.4882   2.5257   2.5271
     2.5430   2.6214   2.6253   2.6415   2.6759   2.7322   2.7446   2.7806
     2.7851   2.8049   2.8399   2.8634   2.8811   2.8998   2.9128   2.9359
     2.9773   3.0205   3.0261   3.0494   3.0914   3.1103   3.1522   3.2277
     3.2439   3.2446   3.3150   3.3254   3.3299   3.3415   3.3778   3.3830
     3.4028   3.4249   3.5088   3.5330   3.5365   3.5968   3.6000   3.7207

[...]
          3173 MiB given to the printing process from OS
             0 MiB allocation reported by mallinfo(arena+hblkhd)
        432006 MiB available memory on the node where the printing process lives
------------------
     ethr =  6.47E-03,  avg # of iterations =  6.0

     negative rho (up, down):  7.199E+02 0.000E+00

     total cpu time spent up to now is     9085.4 secs

     total energy              =  -53569.78308848 Ry
     estimated scf accuracy    <  132177.34096836 Ry

     iteration # 58     ecut=    60.00 Ry     beta= 0.90
     Davidson diagonalization with overlap

---- Real-time Memory Report at c_bands before calling an iterative solver
          3210 MiB given to the printing process from OS
             0 MiB allocation reported by mallinfo(arena+hblkhd)
        431630 MiB available memory on the node where the printing process lives
------------------
     ethr =  6.47E-03,  avg # of iterations =  8.0

     negative rho (up, down):  9.569E+02 0.000E+00

     total cpu time spent up to now is     9194.6 secs

     total energy              =  -50788.62737860 Ry
     estimated scf accuracy    <  170827.19939697 Ry

     iteration # 59     ecut=    60.00 Ry     beta= 0.90
     Davidson diagonalization with overlap

---- Real-time Memory Report at c_bands before calling an iterative solver
          3228 MiB given to the printing process from OS
             0 MiB allocation reported by mallinfo(arena+hblkhd)
        431188 MiB available memory on the node where the printing process lives
------------------
     ethr =  6.47E-03,  avg # of iterations =  7.6

     negative rho (up, down):  1.047E+03 0.000E+00

     total cpu time spent up to now is     9297.6 secs

     total energy              =  -51217.62094913 Ry
     estimated scf accuracy    <  153515.79362195 Ry

     iteration # 60     ecut=    60.00 Ry     beta= 0.90
     Davidson diagonalization with overlap

---- Real-time Memory Report at c_bands before calling an iterative solver
          3258 MiB given to the printing process from OS
             0 MiB allocation reported by mallinfo(arena+hblkhd)
        430683 MiB available memory on the node where the printing process lives
------------------
     ethr =  6.47E-03,  avg # of iterations =  8.2

     negative rho (up, down):  9.409E+02 0.000E+00

     total cpu time spent up to now is     9406.7 secs

     total energy              =  -52963.08326650 Ry
     estimated scf accuracy    <  146821.34915265 Ry

     iteration # 61     ecut=    60.00 Ry     beta= 0.90
     Davidson diagonalization with overlap

---- Real-time Memory Report at c_bands before calling an iterative solver
          3300 MiB given to the printing process from OS
             0 MiB allocation reported by mallinfo(arena+hblkhd)
        430223 MiB available memory on the node where the printing process lives
------------------
     ethr =  6.47E-03,  avg # of iterations =  6.0

     negative rho (up, down):  1.202E+03 0.000E+00

     total cpu time spent up to now is     9508.4 secs

     total energy              =  -51289.06446548 Ry
     estimated scf accuracy    <  127444.04616429 Ry

     iteration # 62     ecut=    60.00 Ry     beta= 0.90
     Davidson diagonalization with overlap

---- Real-time Memory Report at c_bands before calling an iterative solver
          3312 MiB given to the printing process from OS
             0 MiB allocation reported by mallinfo(arena+hblkhd)
        429890 MiB available memory on the node where the printing process lives
------------------
     ethr =  6.47E-03,  avg # of iterations = 10.4

     negative rho (up, down):  9.269E+02 0.000E+00

     total cpu time spent up to now is     9622.3 secs

     total energy              =  -57499.78033636 Ry
     estimated scf accuracy    <  135019.69223194 Ry

     iteration # 63     ecut=    60.00 Ry     beta= 0.90
     Davidson diagonalization with overlap

---- Real-time Memory Report at c_bands before calling an iterative solver
          3360 MiB given to the printing process from OS
             0 MiB allocation reported by mallinfo(arena+hblkhd)
        429372 MiB available memory on the node where the printing process lives
------------------
     ethr =  6.47E-03,  avg # of iterations =  8.4

     negative rho (up, down):  9.322E+02 0.000E+00

     total cpu time spent up to now is     9729.0 secs

     total energy              =  -49305.30677490 Ry
     estimated scf accuracy    <  165001.08020970 Ry

     iteration # 64     ecut=    60.00 Ry     beta= 0.90
     Davidson diagonalization with overlap

---- Real-time Memory Report at c_bands before calling an iterative solver
          3391 MiB given to the printing process from OS
             0 MiB allocation reported by mallinfo(arena+hblkhd)
        428883 MiB available memory on the node where the printing process lives
------------------
     ethr =  6.47E-03,  avg # of iterations = 13.0

     negative rho (up, down):  7.814E+02 0.000E+00

     total cpu time spent up to now is     9869.7 secs

     total energy              =  -64000.17206189 Ry
     estimated scf accuracy    <  134977.61888543 Ry

     iteration # 65     ecut=    60.00 Ry     beta= 0.90
     Davidson diagonalization with overlap

---- Real-time Memory Report at c_bands before calling an iterative solver
          3439 MiB given to the printing process from OS
             0 MiB allocation reported by mallinfo(arena+hblkhd)
        428197 MiB available memory on the node where the printing process lives
------------------
     ethr =  6.47E-03,  avg # of iterations =  7.8

     negative rho (up, down):  8.123E+02 0.000E+00

     total cpu time spent up to now is    10001.1 secs

     total energy              =  -64455.34390620 Ry
     estimated scf accuracy    <  158445.72380537 Ry

     iteration # 66     ecut=    60.00 Ry     beta= 0.90
     Davidson diagonalization with overlap

---- Real-time Memory Report at c_bands before calling an iterative solver
          3463 MiB given to the printing process from OS
             0 MiB allocation reported by mallinfo(arena+hblkhd)
        427706 MiB available memory on the node where the printing process lives
------------------
     ethr =  6.47E-03,  avg # of iterations = 11.2

     negative rho (up, down):  1.111E+03 0.000E+00

     total cpu time spent up to now is    10116.6 secs

     total energy              =  -58314.21283885 Ry
     estimated scf accuracy    <  149936.02286662 Ry

     iteration # 67     ecut=    60.00 Ry     beta= 0.90
     Davidson diagonalization with overlap

---- Real-time Memory Report at c_bands before calling an iterative solver
          3514 MiB given to the printing process from OS
             0 MiB allocation reported by mallinfo(arena+hblkhd)
        427048 MiB available memory on the node where the printing process lives
------------------
     ethr =  6.47E-03,  avg # of iterations = 11.4

     negative rho (up, down):  1.215E+03 0.000E+00

     total cpu time spent up to now is    10263.5 secs

     total energy              =  -60388.57865597 Ry
     estimated scf accuracy    <  238522.97678888 Ry

     iteration # 68     ecut=    60.00 Ry     beta= 0.90
     Davidson diagonalization with overlap

---- Real-time Memory Report at c_bands before calling an iterative solver
          3546 MiB given to the printing process from OS
             0 MiB allocation reported by mallinfo(arena+hblkhd)
        426493 MiB available memory on the node where the printing process lives
------------------
     ethr =  6.47E-03,  avg # of iterations =  9.2

     negative rho (up, down):  1.226E+03 0.000E+00

     total cpu time spent up to now is    10411.3 secs

     total energy              =  -63612.62509118 Ry
     estimated scf accuracy    <  212359.78663558 Ry

     iteration # 69     ecut=    60.00 Ry     beta= 0.90
     Davidson diagonalization with overlap

---- Real-time Memory Report at c_bands before calling an iterative solver
          3596 MiB given to the printing process from OS
             0 MiB allocation reported by mallinfo(arena+hblkhd)
        425873 MiB available memory on the node where the printing process lives
------------------
     ethr =  6.47E-03,  avg # of iterations =  5.0

     negative rho (up, down):  1.281E+03 0.000E+00

     total cpu time spent up to now is    10488.7 secs

     total energy              =  -62138.85308781 Ry
     estimated scf accuracy    <  210874.26603791 Ry

     iteration # 70     ecut=    60.00 Ry     beta= 0.90
     Davidson diagonalization with overlap

---- Real-time Memory Report at c_bands before calling an iterative solver
          3607 MiB given to the printing process from OS
             0 MiB allocation reported by mallinfo(arena+hblkhd)
        425546 MiB available memory on the node where the printing process lives
------------------
     ethr =  6.47E-03,  avg # of iterations =  6.0

     negative rho (up, down):  1.052E+03 0.000E+00

     total cpu time spent up to now is    10574.7 secs

     total energy              =  -62698.25840999 Ry
     estimated scf accuracy    <  207906.19634461 Ry

     iteration # 71     ecut=    60.00 Ry     beta= 0.90
     Davidson diagonalization with overlap

---- Real-time Memory Report at c_bands before calling an iterative solver
          3628 MiB given to the printing process from OS
             0 MiB allocation reported by mallinfo(arena+hblkhd)
        425203 MiB available memory on the node where the printing process lives
------------------
     ethr =  6.47E-03,  avg # of iterations = 10.8

     negative rho (up, down):  1.070E+03 0.000E+00

     total cpu time spent up to now is    10721.9 secs

     total energy              =  -70363.08817021 Ry
     estimated scf accuracy    <  192079.81145974 Ry

     iteration # 72     ecut=    60.00 Ry     beta= 0.90
     Davidson diagonalization with overlap

---- Real-time Memory Report at c_bands before calling an iterative solver
          3677 MiB given to the printing process from OS
             0 MiB allocation reported by mallinfo(arena+hblkhd)
        424603 MiB available memory on the node where the printing process lives
------------------
     ethr =  6.47E-03,  avg # of iterations =  3.0

     negative rho (up, down):  1.033E+03 0.000E+00

     total cpu time spent up to now is    10791.5 secs

     total energy              =  -67188.25059085 Ry
     estimated scf accuracy    <  193668.49603295 Ry

     iteration # 73     ecut=    60.00 Ry     beta= 0.90
     Davidson diagonalization with overlap

---- Real-time Memory Report at c_bands before calling an iterative solver
          3687 MiB given to the printing process from OS
             0 MiB allocation reported by mallinfo(arena+hblkhd)
        424367 MiB available memory on the node where the printing process lives
------------------
     ethr =  6.47E-03,  avg # of iterations =  7.0

     negative rho (up, down):  9.148E+02 0.000E+00

     total cpu time spent up to now is    10912.9 secs

     total energy              =  -67277.18103381 Ry
     estimated scf accuracy    <  177015.49609120 Ry

     iteration # 74     ecut=    60.00 Ry     beta= 0.90
     Davidson diagonalization with overlap

---- Real-time Memory Report at c_bands before calling an iterative solver
          3715 MiB given to the printing process from OS
             0 MiB allocation reported by mallinfo(arena+hblkhd)
        424009 MiB available memory on the node where the printing process lives
------------------
     ethr =  6.47E-03,  avg # of iterations =  5.8

     negative rho (up, down):  8.856E+02 0.000E+00

     total cpu time spent up to now is    11010.4 secs

     total energy              =  -58511.62656118 Ry
     estimated scf accuracy    <  165136.55207037 Ry

     iteration # 75     ecut=    60.00 Ry     beta= 0.90
     Davidson diagonalization with overlap

---- Real-time Memory Report at c_bands before calling an iterative solver
          3743 MiB given to the printing process from OS
             0 MiB allocation reported by mallinfo(arena+hblkhd)
        423636 MiB available memory on the node where the printing process lives
------------------
     ethr =  6.47E-03,  avg # of iterations =  6.4

     negative rho (up, down):  8.009E+02 0.000E+00

     total cpu time spent up to now is    11125.5 secs

     total energy              =  -50628.85512499 Ry
     estimated scf accuracy    <  131064.28128389 Ry

     iteration # 76     ecut=    60.00 Ry     beta= 0.90
     Davidson diagonalization with overlap

---- Real-time Memory Report at c_bands before calling an iterative solver
          3769 MiB given to the printing process from OS
             0 MiB allocation reported by mallinfo(arena+hblkhd)
        423246 MiB available memory on the node where the printing process lives
------------------
     ethr =  6.47E-03,  avg # of iterations =  8.6

     negative rho (up, down):  7.595E+02 0.000E+00

     total cpu time spent up to now is    11250.5 secs

     total energy              =  -74338.75074729 Ry
     estimated scf accuracy    <  151044.08257420 Ry

     iteration # 77     ecut=    60.00 Ry     beta= 0.90
     Davidson diagonalization with overlap

---- Real-time Memory Report at c_bands before calling an iterative solver
          3805 MiB given to the printing process from OS
             0 MiB allocation reported by mallinfo(arena+hblkhd)
        422715 MiB available memory on the node where the printing process lives
------------------
     ethr =  6.47E-03,  avg # of iterations =  6.0

     negative rho (up, down):  7.135E+02 0.000E+00

     total cpu time spent up to now is    11334.2 secs

     total energy              =  -49757.35668366 Ry
     estimated scf accuracy    <  144125.12386055 Ry

     iteration # 78     ecut=    60.00 Ry     beta= 0.90
     Davidson diagonalization with overlap

---- Real-time Memory Report at c_bands before calling an iterative solver
          3832 MiB given to the printing process from OS
             0 MiB allocation reported by mallinfo(arena+hblkhd)
        422351 MiB available memory on the node where the printing process lives
------------------
     ethr =  6.47E-03,  avg # of iterations =  7.0

     negative rho (up, down):  7.080E+02 0.000E+00

     total cpu time spent up to now is    11448.2 secs

     total energy              =  -62292.28535376 Ry
     estimated scf accuracy    <  108356.69891694 Ry

     iteration # 79     ecut=    60.00 Ry     beta= 0.90
     Davidson diagonalization with overlap

---- Real-time Memory Report at c_bands before calling an iterative solver
          3858 MiB given to the printing process from OS
             0 MiB allocation reported by mallinfo(arena+hblkhd)
        421951 MiB available memory on the node where the printing process lives
------------------
     ethr =  6.47E-03,  avg # of iterations =  6.0

     negative rho (up, down):  5.948E+02 0.000E+00

     total cpu time spent up to now is    11536.7 secs

     total energy              =  -50114.87196322 Ry
     estimated scf accuracy    <  133064.58176098 Ry

     iteration # 80     ecut=    60.00 Ry     beta= 0.90
     Davidson diagonalization with overlap

---- Real-time Memory Report at c_bands before calling an iterative solver
          3885 MiB given to the printing process from OS
             0 MiB allocation reported by mallinfo(arena+hblkhd)
        421503 MiB available memory on the node where the printing process lives
------------------
     ethr =  6.47E-03,  avg # of iterations =  8.0

     negative rho (up, down):  6.668E+02 0.000E+00

     total cpu time spent up to now is    11645.9 secs

     total energy              =  -41249.66278290 Ry
     estimated scf accuracy    <   76251.25523057 Ry

     End of self-consistent calculation

     convergence NOT achieved after  80 iterations: stopping

     Writing config to output data dir ./pwscf.save/

     init_run     :     44.58s CPU     46.82s WALL (       1 calls)
     electrons    :  10852.67s CPU  11533.01s WALL (       3 calls)
     update_pot   :      7.61s CPU      7.68s WALL (       2 calls)
     forces       :     43.04s CPU     46.49s WALL (       2 calls)
     force_dftd3  :      0.42s CPU      0.59s WALL (       2 calls)

     Called by init_run:
     wfcinit      :     28.23s CPU     29.75s WALL (       1 calls)
     wfcinit:atom :      0.18s CPU      0.24s WALL (       5 calls)
     wfcinit:wfcr :     27.12s CPU     28.37s WALL (       5 calls)
     potinit      :      7.36s CPU      7.48s WALL (       1 calls)
     hinit0       :      2.00s CPU      2.07s WALL (       1 calls)

     Called by electrons:
     c_bands      :   9273.91s CPU   9813.64s WALL (     124 calls)
     sum_band     :    946.38s CPU   1030.31s WALL (     124 calls)
     v_of_rho     :     30.06s CPU     30.76s WALL (     127 calls)
     v_h          :      3.02s CPU      3.05s WALL (     127 calls)
     v_xc         :     27.39s CPU     28.06s WALL (     129 calls)
     newd         :    107.48s CPU    153.98s WALL (     127 calls)
     PAW_pot      :     45.33s CPU     47.16s WALL (     129 calls)
     mix_rho      :    451.92s CPU    456.74s WALL (     124 calls)
     energy_dftd3 :      0.20s CPU      0.21s WALL (       3 calls)

     Called by c_bands:
     init_us_2    :     97.24s CPU     98.84s WALL (    1265 calls)
     init_us_2:cp :     97.23s CPU     98.83s WALL (    1265 calls)
     cegterg      :   9141.76s CPU   9669.56s WALL (     620 calls)

     Called by sum_band:
     sum_band:wei :      0.12s CPU      0.13s WALL (     124 calls)
     sum_band:loo :    825.66s CPU    862.34s WALL (     124 calls)
     sum_band:buf :     14.74s CPU     16.33s WALL (     620 calls)
     sum_band:ini :     46.58s CPU     47.20s WALL (     620 calls)
     sum_band:cal :    426.17s CPU    456.96s WALL (     630 calls)
     sum_band:bec :      6.50s CPU      6.61s WALL (     630 calls)
     addusdens    :    111.28s CPU    158.05s WALL (     124 calls)
     addusd:skk   :      4.57s CPU     14.27s WALL (     372 calls)
     addusd:dgemm :     55.41s CPU     90.86s WALL (     372 calls)
     addusd:qvan2 :     48.64s CPU     49.25s WALL (     372 calls)

     Called by *egterg:
     cdiaghg      :    685.25s CPU    735.76s WALL (    4524 calls)
     cegterg:over :    834.03s CPU    942.10s WALL (    3914 calls)
     cegterg:upda :    643.64s CPU    678.51s WALL (    3914 calls)
     cegterg:last :   1343.80s CPU   1438.26s WALL (    1473 calls)
     cdiaghg:chol :     42.02s CPU     42.46s WALL (    4524 calls)
     cdiaghg:inve :     37.97s CPU     49.90s WALL (    4524 calls)
     cdiaghg:para :     88.15s CPU    106.10s WALL (    9048 calls)
     h_psi        :   4285.90s CPU   4432.23s WALL (    4539 calls)
     s_psi        :   1108.13s CPU   1117.49s WALL (    4539 calls)
     g_psi        :     17.60s CPU     17.95s WALL (    3914 calls)

     Called by h_psi:
     h_psi:calbec :   1245.64s CPU   1341.42s WALL (    4539 calls)
     vloc_psi     :   1901.84s CPU   1923.39s WALL (    4539 calls)
     add_vuspsi   :   1105.59s CPU   1116.22s WALL (    4539 calls)

     General routines
     calbec       :   1698.26s CPU   1826.72s WALL (    5209 calls)
     fft          :     28.60s CPU     28.92s WALL (    1671 calls)
     ffts         :    218.83s CPU    221.19s WALL (   79283 calls)
     fftw         :   2126.30s CPU   2150.46s WALL ( 2056006 calls)
     interpolate  :      2.75s CPU      2.78s WALL (     127 calls)
     davcio       :      0.00s CPU      3.30s WALL (      23 calls)

     Parallel routines

     PAW routines
     PAW_pot      :     45.33s CPU     47.16s WALL (     129 calls)

     PWSCF        :      3h 2m CPU      3h14m WALL


   This run was terminated on:   4:23:27  28Jun2025            

=------------------------------------------------------------------------------=
   JOB DONE.
=------------------------------------------------------------------------------=
